<?xml version="1.0" encoding="ISO-8859-1"?>
<modeling>
 <generator>
  <i name="program" type="string">vasp </i>
  <i name="version" type="string">5.4.4.18Apr17-6-g9f103f2a35  </i>
  <i name="subversion" type="string">(build Jun 30 2017 11:15:00) complex            parallel </i>
  <i name="platform" type="string">STALLO_VASP_5.4.4 </i>
  <i name="date" type="string">2019 11 03 </i>
  <i name="time" type="string">20:39:30 </i>
 </generator>
 <incar>
  <i type="string" name="PREC">accurate  ! low/normal/accurate</i>
  <i type="string" name="ALGO"> Damped    ! Algorithm for electronic re</i>
  <i type="int" name="NELM">   300</i>
  <i type="int" name="NELMIN">     4</i>
  <i name="EDIFF">      0.00000100</i>
  <i type="int" name="NSW">     0</i>
  <i name="SYMPREC">      0.00010000</i>
  <i name="ENCUT">    650.00000000</i>
  <i type="int" name="NEDOS">  2801</i>
  <i type="logical" name="LREAL"> F  </i>
  <i name="TIME">      0.40000000</i>
  <i name="EMIN">     -3.00000000</i>
  <i name="EMAX">      4.00000000</i>
  <i type="int" name="ISMEAR">    -5</i>
  <i name="SIGMA">      0.01000000</i>
  <i type="logical" name="LWAVE"> F  </i>
  <i type="int" name="LORBIT">    11</i>
  <v type="int" name="KPOINT_BSE">    -1     0     0     0</v>
  <i type="int" name="NELM">   300</i>
  <i type="logical" name="LHFCALC"> T  </i>
  <i name="HFSCREEN">      0.20000000</i>
 </incar>
 <structure name="primitive_cell" >
  <crystal>
   <varray name="basis" >
    <v>       3.18339712       0.00000000       0.00000000 </v>
    <v>      -1.59169856       2.75690277       0.00000000 </v>
    <v>       0.00000000       0.00000000      24.86458601 </v>
   </varray>
   <i name="volume">    218.21947242 </i>
   <varray name="rec_basis" >
    <v>       0.31412983       0.18136294       0.00000000 </v>
    <v>       0.00000000       0.36272589       0.00000000 </v>
    <v>       0.00000000       0.00000000       0.04021784 </v>
   </varray>
  </crystal>
  <varray name="positions" >
   <v>       0.33333300      -0.33333300       0.14951355 </v>
   <v>      -0.33333400       0.33333300       0.21239664 </v>
   <v>      -0.33333300       0.33333300       0.08662845 </v>
   <v>       0.33333300      -0.33333300      -0.08662845 </v>
   <v>      -0.33333300       0.33333300      -0.14951355 </v>
   <v>       0.33333400      -0.33333300      -0.21239664 </v>
  </varray>
 </structure>
 <varray name="primitive_index" >
  <v type="int" >        1 </v>
  <v type="int" >        5 </v>
  <v type="int" >        4 </v>
  <v type="int" >        3 </v>
  <v type="int" >        2 </v>
  <v type="int" >        6 </v>
 </varray>
 <kpoints>
  <generation param="Gamma">
   <v type="int" name="divisions">      10       10        1 </v>
   <v name="usershift">      0.00000000       0.00000000       0.00000000 </v>
   <v name="genvec1">      0.10000000      -0.00000000       0.00000000 </v>
   <v name="genvec2">      0.00000000       0.10000000       0.00000000 </v>
   <v name="genvec3">      0.00000000       0.00000000       1.00000000 </v>
   <v name="shift">      0.00000000       0.00000000       0.00000000 </v>
  </generation>
  <varray name="kpointlist" >
   <v>       0.00000000       0.00000000       0.00000000 </v>
   <v>       0.10000000      -0.00000000       0.00000000 </v>
   <v>       0.20000000       0.00000000       0.00000000 </v>
   <v>       0.30000000       0.00000000       0.00000000 </v>
   <v>       0.40000000       0.00000000       0.00000000 </v>
   <v>       0.50000000      -0.00000000       0.00000000 </v>
   <v>       0.10000000       0.10000000       0.00000000 </v>
   <v>       0.20000000       0.10000000       0.00000000 </v>
   <v>       0.30000000       0.10000000       0.00000000 </v>
   <v>       0.40000000       0.10000000       0.00000000 </v>
   <v>       0.20000000       0.20000000       0.00000000 </v>
   <v>       0.30000000       0.20000000       0.00000000 </v>
   <v>       0.40000000       0.20000000       0.00000000 </v>
   <v>       0.30000000       0.30000000       0.00000000 </v>
  </varray>
  <varray name="weights" >
   <v>       0.01000000 </v>
   <v>       0.06000000 </v>
   <v>       0.06000000 </v>
   <v>       0.06000000 </v>
   <v>       0.06000000 </v>
   <v>       0.03000000 </v>
   <v>       0.06000000 </v>
   <v>       0.12000000 </v>
   <v>       0.12000000 </v>
   <v>       0.12000000 </v>
   <v>       0.06000000 </v>
   <v>       0.12000000 </v>
   <v>       0.06000000 </v>
   <v>       0.06000000 </v>
  </varray>
  <varray name="tetrahedronlist"  type="int" >
   <v type="int" >       12        2        2        2        7 </v>
   <v type="int" >       12        1        2        2        2 </v>
   <v type="int" >        6        1        1        2        2 </v>
   <v type="int" >        6        2        2        7        7 </v>
   <v type="int" >       12        3        7        7        8 </v>
   <v type="int" >       12        2        3        7        7 </v>
   <v type="int" >       12        2        2        3        7 </v>
   <v type="int" >       12        3        7        8        8 </v>
   <v type="int" >       12        3        3        7        8 </v>
   <v type="int" >       12        2        3        3        7 </v>
   <v type="int" >       12        4        8        8        9 </v>
   <v type="int" >       12        3        4        8        8 </v>
   <v type="int" >       12        3        3        4        8 </v>
   <v type="int" >       12        4        8        9        9 </v>
   <v type="int" >       12        4        4        8        9 </v>
   <v type="int" >       12        3        4        4        8 </v>
   <v type="int" >       12        5        9        9       10 </v>
   <v type="int" >       12        4        5        9        9 </v>
   <v type="int" >       12        4        4        5        9 </v>
   <v type="int" >       12        5        9       10       10 </v>
   <v type="int" >       12        5        5        9       10 </v>
   <v type="int" >       12        4        5        5        9 </v>
   <v type="int" >       12        6       10       10       10 </v>
   <v type="int" >       12        5        6       10       10 </v>
   <v type="int" >       12        5        5        6       10 </v>
   <v type="int" >        6        6        6       10       10 </v>
   <v type="int" >       12        5        6        6       10 </v>
   <v type="int" >       12        8        8        8       11 </v>
   <v type="int" >       12        7        8        8        8 </v>
   <v type="int" >        6        7        7        8        8 </v>
   <v type="int" >        6        8        8       11       11 </v>
   <v type="int" >       12        9       11       11       12 </v>
   <v type="int" >       12        8        9       11       11 </v>
   <v type="int" >       12        8        8        9       11 </v>
   <v type="int" >       12        9       11       12       12 </v>
   <v type="int" >       12        9        9       11       12 </v>
   <v type="int" >       12        8        9        9       11 </v>
   <v type="int" >       12       10       12       12       13 </v>
   <v type="int" >       12        9       10       12       12 </v>
   <v type="int" >       12        9        9       10       12 </v>
   <v type="int" >       12       10       12       13       13 </v>
   <v type="int" >       12       10       10       12       13 </v>
   <v type="int" >       12        9       10       10       12 </v>
   <v type="int" >        6       10       10       13       13 </v>
   <v type="int" >       12       10       10       10       13 </v>
   <v type="int" >       12       12       12       12       14 </v>
   <v type="int" >       12       11       12       12       12 </v>
   <v type="int" >        6       11       11       12       12 </v>
   <v type="int" >        6       12       12       14       14 </v>
   <v type="int" >       12       13       14       14       14 </v>
   <v type="int" >       12       12       13       14       14 </v>
   <v type="int" >       12       12       12       13       14 </v>
   <v type="int" >        6       13       13       14       14 </v>
   <v type="int" >       12       12       13       13       14 </v>
   <v type="int" >        6       14       14       14       14 </v>
  </varray>
  <i name="volumeweight">      0.00166667 </i>
 </kpoints>
 <parameters>
  <separator name="general" >
   <i type="string" name="SYSTEM">unknown system</i>
   <i type="logical" name="LCOMPAT"> F  </i>
  </separator>
  <separator name="electronic" >
   <i type="string" name="PREC">accura</i>
   <i name="ENMAX">    650.00000000</i>
   <i name="ENAUG">    345.27800000</i>
   <i name="EDIFF">      0.00000100</i>
   <i type="int" name="IALGO">    53</i>
   <i type="int" name="IWAVPR">    10</i>
   <i type="int" name="NBANDS">    24</i>
   <i name="NELECT">     36.00000000</i>
   <i type="int" name="TURBO">     0</i>
   <i type="int" name="IRESTART">     0</i>
   <i type="int" name="NREBOOT">     0</i>
   <i type="int" name="NMIN">     0</i>
   <i name="EREF">      0.00000000</i>
   <separator name="electronic smearing" >
    <i type="int" name="ISMEAR">    -5</i>
    <i name="SIGMA">      0.01000000</i>
    <i name="KSPACING">      0.50000000</i>
    <i type="logical" name="KGAMMA"> T  </i>
   </separator>
   <separator name="electronic projectors" >
    <i type="logical" name="LREAL"> F  </i>
    <v name="ROPT">      0.00000000      0.00000000</v>
    <i type="int" name="LMAXPAW">  -100</i>
    <i type="int" name="LMAXMIX">     2</i>
    <i type="logical" name="NLSPLINE"> F  </i>
   </separator>
   <separator name="electronic startup" >
    <i type="int" name="ISTART">     0</i>
    <i type="int" name="ICHARG">     2</i>
    <i type="int" name="INIWAV">     1</i>
   </separator>
   <separator name="electronic spin" >
    <i type="int" name="ISPIN">     1</i>
    <i type="logical" name="LNONCOLLINEAR"> F  </i>
    <v name="MAGMOM">      1.00000000      1.00000000      1.00000000      1.00000000      1.00000000      1.00000000</v>
    <i name="NUPDOWN">     -1.00000000</i>
    <i type="logical" name="LSORBIT"> F  </i>
    <v name="SAXIS">      0.00000000      0.00000000      1.00000000</v>
    <i type="logical" name="LSPIRAL"> F  </i>
    <v name="QSPIRAL">      0.00000000      0.00000000      0.00000000</v>
    <i type="logical" name="LZEROZ"> F  </i>
   </separator>
   <separator name="electronic exchange-correlation" >
    <i type="logical" name="LASPH"> F  </i>
    <i type="logical" name="LMETAGGA"> F  </i>
   </separator>
   <separator name="electronic convergence" >
    <i type="int" name="NELM">   300</i>
    <i type="int" name="NELMDL">     0</i>
    <i type="int" name="NELMIN">     4</i>
    <i name="ENINI">    650.00000000</i>
    <separator name="electronic convergence detail" >
     <i type="logical" name="LDIAG"> T  </i>
     <i type="logical" name="LSUBROT"> F  </i>
     <i name="WEIMIN">      0.00000000</i>
     <i name="EBREAK">      0.00000001</i>
     <i name="DEPER">      0.30000000</i>
     <i type="int" name="NRMM">     4</i>
     <i name="TIME">      0.40000000</i>
    </separator>
   </separator>
   <separator name="electronic mixer" >
    <i name="AMIX">      0.40000000</i>
    <i name="BMIX">      1.00000000</i>
    <i name="AMIN">      0.10000000</i>
    <i name="AMIX_MAG">      1.60000000</i>
    <i name="BMIX_MAG">      1.00000000</i>
    <separator name="electronic mixer details" >
     <i type="int" name="IMIX">     4</i>
     <i type="logical" name="MIXFIRST"> F  </i>
     <i type="int" name="MAXMIX">   -45</i>
     <i name="WC">    100.00000000</i>
     <i type="int" name="INIMIX">     1</i>
     <i type="int" name="MIXPRE">     1</i>
     <i type="int" name="MREMOVE">     5</i>
    </separator>
   </separator>
   <separator name="electronic dipolcorrection" >
    <i type="logical" name="LDIPOL"> F  </i>
    <i type="logical" name="LMONO"> F  </i>
    <i type="int" name="IDIPOL">     0</i>
    <i name="EPSILON">      1.00000000</i>
    <v name="DIPOL">   -100.00000000   -100.00000000   -100.00000000</v>
    <i name="EFIELD">      0.00000000</i>
   </separator>
  </separator>
  <separator name="grids" >
   <i type="int" name="NGX">    28</i>
   <i type="int" name="NGY">    28</i>
   <i type="int" name="NGZ">   210</i>
   <i type="int" name="NGXF">    56</i>
   <i type="int" name="NGYF">    56</i>
   <i type="int" name="NGZF">   420</i>
   <i type="logical" name="ADDGRID"> F  </i>
  </separator>
  <separator name="ionic" >
   <i type="int" name="NSW">     0</i>
   <i type="int" name="IBRION">    -1</i>
   <i type="int" name="MDALGO">     0</i>
   <i type="int" name="ISIF">     0</i>
   <i name="PSTRESS">      0.00000000</i>
   <i name="EDIFFG">      0.00001000</i>
   <i type="int" name="NFREE">     0</i>
   <i name="POTIM">      0.50000000</i>
   <i name="SMASS">     -3.00000000</i>
   <i name="SCALEE">      1.00000000</i>
  </separator>
  <separator name="ionic md" >
   <i name="TEBEG">      0.00010000</i>
   <i name="TEEND">      0.00010000</i>
   <i type="int" name="NBLOCK">     1</i>
   <i type="int" name="KBLOCK">     1</i>
   <i type="int" name="NPACO">   256</i>
   <i name="APACO">     16.00000000</i>
  </separator>
  <separator name="symmetry" >
   <i type="int" name="ISYM">     3</i>
   <i name="SYMPREC">      0.00010000</i>
  </separator>
  <separator name="dos" >
   <i type="int" name="LORBIT">    11</i>
   <v name="RWIGS">     -1.00000000     -1.00000000</v>
   <i type="int" name="NEDOS">  2801</i>
   <i name="EMIN">     -3.00000000</i>
   <i name="EMAX">      4.00000000</i>
   <i name="EFERMI">      0.00000000</i>
  </separator>
  <separator name="writing" >
   <i type="int" name="NWRITE">     2</i>
   <i type="logical" name="LWAVE"> F  </i>
   <i type="logical" name="LDOWNSAMPLE"> F  </i>
   <i type="logical" name="LCHARG"> T  </i>
   <i type="logical" name="LPARD"> F  </i>
   <i type="logical" name="LVTOT"> F  </i>
   <i type="logical" name="LVHAR"> F  </i>
   <i type="logical" name="LELF"> F  </i>
   <i type="logical" name="LOPTICS"> F  </i>
   <v name="STM">      0.00000000      0.00000000      0.00000000      0.00000000      0.00000000      0.00000000      0.00000000</v>
  </separator>
  <separator name="performance" >
   <i type="int" name="NPAR">     4</i>
   <i type="int" name="NSIM">     4</i>
   <i type="int" name="NBLK">    -1</i>
   <i type="logical" name="LPLANE"> T  </i>
   <i type="logical" name="LSCALAPACK"> T  </i>
   <i type="logical" name="LSCAAWARE"> F  </i>
   <i type="logical" name="LSCALU"> F  </i>
   <i type="logical" name="LASYNC"> F  </i>
   <i type="logical" name="LORBITALREAL"> F  </i>
  </separator>
  <separator name="miscellaneous" >
   <i type="int" name="IDIOT">     3</i>
   <i type="int" name="ISPECIAL">     0</i>
   <i type="logical" name="LMUSIC"> F  </i>
   <v name="POMASS">     95.94000000     32.06600000</v>
   <v name="DARWINR">      0.00000000      0.00000000</v>
   <v name="DARWINV">      1.00000000      1.00000000</v>
   <i type="logical" name="LCORR"> T  </i>
  </separator>
  <i type="logical" name="GGA_COMPAT"> T  </i>
  <i type="logical" name="LBERRY"> F  </i>
  <i type="int" name="ICORELEVEL">     0</i>
  <i type="logical" name="LDAU"> F  </i>
  <i type="int" name="I_CONSTRAINED_M">     0</i>
  <separator name="electronic exchange-correlation" >
   <i type="string" name="GGA">--</i>
   <i type="int" name="VOSKOWN">     0</i>
   <i type="logical" name="LHFCALC"> T  </i>
   <i type="string" name="PRECFOCK">normal</i>
   <i type="logical" name="LSYMGRAD"> F  </i>
   <i type="logical" name="LHFONE"> F  </i>
   <i type="logical" name="LRHFCALC"> F  </i>
   <i type="logical" name="LTHOMAS"> F  </i>
   <i type="logical" name="LMODELHF"> F  </i>
   <i name="ENCUT4O">     -1.00000000</i>
   <i type="int" name="EXXOEP">     0</i>
   <i type="int" name="FOURORBIT">     0</i>
   <i name="AEXX">      0.25000000</i>
   <i name="HFALPHA">     -1.00000000</i>
   <i name="MCALPHA">      0.00000000</i>
   <i name="ALDAX">      0.75000000</i>
   <i name="AGGAX">      0.75000000</i>
   <i name="ALDAC">      1.00000000</i>
   <i name="AGGAC">      1.00000000</i>
   <i type="int" name="NKREDX">     1</i>
   <i type="int" name="NKREDY">     1</i>
   <i type="int" name="NKREDZ">     1</i>
   <i type="logical" name="SHIFTRED"> F  </i>
   <i type="logical" name="ODDONLY"> F  </i>
   <i type="logical" name="EVENONLY"> F  </i>
   <i type="int" name="LMAXFOCK">     4</i>
   <i type="int" name="NMAXFOCKAE">     1</i>
   <i type="logical" name="LFOCKAEDFT"> F  </i>
   <i name="HFSCREEN">      0.20000000</i>
   <i name="HFSCREENC">      0.20000000</i>
   <i type="int" name="NBANDSGWLOW">     1</i>
  </separator>
  <separator name="vdW DFT" >
   <i type="logical" name="LUSE_VDW"> F  </i>
   <i name="Zab_VDW">     -0.84910000</i>
   <i name="PARAM1">      0.12340000</i>
   <i name="PARAM2">      1.00000000</i>
   <i name="PARAM3">      0.00000000</i>
  </separator>
  <separator name="model GW" >
   <i type="int" name="MODEL_GW">     0</i>
   <i name="MODEL_EPS0">     21.82194724</i>
   <i name="MODEL_ALPHA">      1.00000000</i>
  </separator>
  <separator name="linear response parameters" >
   <i type="logical" name="LEPSILON"> F  </i>
   <i type="logical" name="LRPA"> F  </i>
   <i type="logical" name="LNABLA"> F  </i>
   <i type="logical" name="LVEL"> F  </i>
   <i type="int" name="KINTER">     0</i>
   <i name="CSHIFT">      0.10000000</i>
   <i name="OMEGAMAX">     -1.00000000</i>
   <i name="DEG_THRESHOLD">      0.00200000</i>
   <i name="RTIME">     -0.10000000</i>
   <i name="WPLASMAI">      0.00000000</i>
   <v name="DFIELD">      0.00000000      0.00000000      0.00000000</v>
   <v name="WPLASMA">      0.00000000      0.00000000      0.00000000      0.00000000      0.00000000      0.00000000      0.00000000      0.00000000      0.00000000</v>
  </separator>
  <separator name="orbital magnetization" >
   <i type="logical" name="NUCIND"> F  </i>
   <v name="MAGPOS">      0.00000000      0.00000000      0.00000000</v>
   <i type="logical" name="LNICSALL"> T  </i>
   <i type="logical" name="ORBITALMAG"> F  </i>
   <i type="logical" name="LMAGBLOCH"> F  </i>
   <i type="logical" name="LCHIMAG"> F  </i>
   <i type="logical" name="LGAUGE"> T  </i>
   <i type="int" name="MAGATOM">     0</i>
   <v name="MAGDIPOL">      0.00000000      0.00000000      0.00000000</v>
   <v name="AVECCONST">      0.00000000      0.00000000      0.00000000</v>
  </separator>
  <separator name="response functions" >
   <i type="logical" name="LADDER"> F  </i>
   <i type="logical" name="LRPAFORCE"> F  </i>
   <i type="logical" name="LFXC"> F  </i>
   <i type="logical" name="LHARTREE"> T  </i>
   <i type="int" name="IBSE">     0</i>
   <v type="int" name="KPOINT">    -1     0     0     0</v>
   <i type="logical" name="LTCTE"> F  </i>
   <i type="logical" name="LTETE"> F  </i>
   <i type="logical" name="LTRIPLET"> F  </i>
   <i type="logical" name="LFXCEPS"> F  </i>
   <i type="logical" name="LFXHEG"> F  </i>
   <i type="int" name="NATURALO">     2</i>
   <i type="logical" name="L2ORDER"> F  </i>
   <i type="logical" name="LMP2LT"> F  </i>
   <i type="logical" name="LUSEW"> F  </i>
   <i name="ENCUTGW">     -2.00000000</i>
   <i name="ENCUTGWSOFT">     -2.00000000</i>
   <i name="ENCUTLF">     -1.00000000</i>
   <i type="int" name="LMAXMP2">    -1</i>
   <i name="SCISSOR">      0.00000000</i>
   <i type="int" name="NOMEGA">     0</i>
   <i type="int" name="NOMEGAR">     0</i>
   <i type="int" name="NBANDSGW">    -1</i>
   <i type="int" name="NBANDSO">    -1</i>
   <i type="int" name="NBANDSV">    -1</i>
   <i type="int" name="NELM">   300</i>
   <i type="int" name="NELMHF">     1</i>
   <i type="int" name="DIM">     3</i>
   <i type="int" name="ANTIRES">     0</i>
   <i name="OMEGAMAX">    -30.00000000</i>
   <i name="OMEGAMIN">    -30.00000000</i>
   <i name="OMEGATL">   -200.00000000</i>
   <i type="int" name="OMEGAGRID">   140</i>
   <i name="CSHIFT">     -0.10000000</i>
   <i type="logical" name="SELFENERGY"> F  </i>
   <i type="logical" name="LSPECTRAL"> F  </i>
   <i type="logical" name="LSPECTRALGW"> F  </i>
   <i type="logical" name="LSINGLES"> F  </i>
   <i type="logical" name="LFERMIGW"> F  </i>
   <i type="logical" name="ODDONLYGW"> F  </i>
   <i type="logical" name="EVENONLYGW"> F  </i>
   <i type="int" name="NKREDLFX">     1</i>
   <i type="int" name="NKREDLFY">     1</i>
   <i type="int" name="NKREDLFZ">     1</i>
   <i type="int" name="MAXMEM">  2800</i>
   <i type="int" name="TELESCOPE">     0</i>
   <i type="int" name="TAUPAR">     1</i>
   <i type="int" name="OMEGAPAR">    -1</i>
   <i name="LAMBDA">      1.00000000</i>
  </separator>
  <separator name="External order field" >
   <i name="OFIELD_KAPPA">      0.00000000</i>
   <v name="OFIELD_K">      0.00000000      0.00000000      0.00000000</v>
   <i name="OFIELD_Q6_NEAR">      0.00000000</i>
   <i name="OFIELD_Q6_FAR">      0.00000000</i>
   <i name="OFIELD_A">      0.00000000</i>
  </separator>
 </parameters>
 <atominfo>
  <atoms>       6 </atoms>
  <types>       2 </types>
  <array name="atoms" >
   <dimension dim="1">ion</dimension>
   <field type="string">element</field>
   <field type="int">atomtype</field>
   <set>
    <rc><c>Mo</c><c>   1</c></rc>
    <rc><c>Mo</c><c>   1</c></rc>
    <rc><c>S </c><c>   2</c></rc>
    <rc><c>S </c><c>   2</c></rc>
    <rc><c>S </c><c>   2</c></rc>
    <rc><c>S </c><c>   2</c></rc>
   </set>
  </array>
  <array name="atomtypes" >
   <dimension dim="1">type</dimension>
   <field type="int">atomspertype</field>
   <field type="string">element</field>
   <field>mass</field>
   <field>valence</field>
   <field type="string">pseudopotential</field>
   <set>
    <rc><c>   2</c><c>Mo</c><c>     95.94000000</c><c>      6.00000000</c><c> PAW_PBE Mo 08Apr2002                   </c></rc>
    <rc><c>   4</c><c>S </c><c>     32.06600000</c><c>      6.00000000</c><c>  PAW_PBE S 17Jan2003                   </c></rc>
   </set>
  </array>
 </atominfo>
 <structure name="initialpos" >
  <crystal>
   <varray name="basis" >
    <v>       3.18339712       0.00000000       0.00000000 </v>
    <v>      -1.59169856       2.75690277       0.00000000 </v>
    <v>       0.00000000       0.00000000      24.86458601 </v>
   </varray>
   <i name="volume">    218.21947242 </i>
   <varray name="rec_basis" >
    <v>       0.31412983       0.18136294       0.00000000 </v>
    <v>       0.00000000       0.36272589       0.00000000 </v>
    <v>       0.00000000       0.00000000       0.04021784 </v>
   </varray>
  </crystal>
  <varray name="positions" >
   <v>       0.33333300       0.66666700       0.14951355 </v>
   <v>       0.66666700       0.33333300       0.85048645 </v>
   <v>       0.33333300       0.66666700       0.91337155 </v>
   <v>       0.66666700       0.33333300       0.08662845 </v>
   <v>       0.66666600       0.33333300       0.21239664 </v>
   <v>       0.33333400       0.66666700       0.78760336 </v>
  </varray>
 </structure>
 <calculation>
  <scstep>
   <time name="total">    2.04    2.12</time>
   <energy>
    <i name="alphaZ">     54.34637412 </i>
    <i name="ewald">   4400.59424333 </i>
    <i name="hartreedc">  -5905.73352289 </i>
    <i name="XCdc">    -60.31609395 </i>
    <i name="pawpsdc">    797.20416991 </i>
    <i name="pawaedc">   -672.28979984 </i>
    <i name="eentropy">      0.00000000 </i>
    <i name="bandstr">    348.07972560 </i>
    <i name="atom">   1523.27991600 </i>
    <i name="e_fr_energy">    485.16501229 </i>
    <i name="e_wo_entrp">    485.16501229 </i>
    <i name="e_0_energy">    485.16501229 </i>
   </energy>
  </scstep>
  <scstep>
   <time name="total">    1.39    1.41</time>
   <energy>
    <i name="e_fr_energy">    193.73423041 </i>
    <i name="e_wo_entrp">    193.73423041 </i>
    <i name="e_0_energy">    193.73423041 </i>
   </energy>
  </scstep>
  <scstep>
   <time name="total">    1.27    1.28</time>
   <energy>
    <i name="e_fr_energy">     90.00882174 </i>
    <i name="e_wo_entrp">     90.00882174 </i>
    <i name="e_0_energy">     90.00882174 </i>
   </energy>
  </scstep>
  <scstep>
   <time name="total">    1.21    1.23</time>
   <energy>
    <i name="e_fr_energy">     45.63022510 </i>
    <i name="e_wo_entrp">     45.63022510 </i>
    <i name="e_0_energy">     45.63022510 </i>
   </energy>
  </scstep>
  <scstep>
   <time name="total">    1.51    1.52</time>
   <energy>
    <i name="e_fr_energy">     23.69531314 </i>
    <i name="e_wo_entrp">     23.69531314 </i>
    <i name="e_0_energy">     23.69531314 </i>
   </energy>
  </scstep>
  <scstep>
   <time name="total">  194.00  193.97</time>
   <energy>
    <i name="e_fr_energy">    -23.44806933 </i>
    <i name="e_wo_entrp">    -23.44806933 </i>
    <i name="e_0_energy">    -23.44806933 </i>
   </energy>
  </scstep>
  <scstep>
   <time name="total">  194.24  194.22</time>
   <energy>
    <i name="e_fr_energy">    -39.52831838 </i>
    <i name="e_wo_entrp">    -39.52831838 </i>
    <i name="e_0_energy">    -39.52831838 </i>
   </energy>
  </scstep>
  <scstep>
   <time name="total">  195.83  195.82</time>
   <energy>
    <i name="e_fr_energy">    -45.07514499 </i>
    <i name="e_wo_entrp">    -45.07514499 </i>
    <i name="e_0_energy">    -45.07514499 </i>
   </energy>
  </scstep>
  <scstep>
   <time name="total">  194.97  194.95</time>
   <energy>
    <i name="e_fr_energy">    -50.43198494 </i>
    <i name="e_wo_entrp">    -50.43198494 </i>
    <i name="e_0_energy">    -50.43198494 </i>
   </energy>
  </scstep>
  <scstep>
   <time name="total">  195.87  195.85</time>
   <energy>
    <i name="e_fr_energy">    -52.53314558 </i>
    <i name="e_wo_entrp">    -52.53314558 </i>
    <i name="e_0_energy">    -52.53314558 </i>
   </energy>
  </scstep>
  <scstep>
   <time name="total">  195.71  195.69</time>
   <energy>
    <i name="e_fr_energy">    -54.34550810 </i>
    <i name="e_wo_entrp">    -54.34550810 </i>
    <i name="e_0_energy">    -54.34550810 </i>
   </energy>
  </scstep>
  <scstep>
   <time name="total">  194.45  194.44</time>
   <energy>
    <i name="e_fr_energy">    -55.23144861 </i>
    <i name="e_wo_entrp">    -55.23144861 </i>
    <i name="e_0_energy">    -55.23144861 </i>
   </energy>
  </scstep>
  <scstep>
   <time name="total">  194.11  194.09</time>
   <energy>
    <i name="e_fr_energy">    -55.84297466 </i>
    <i name="e_wo_entrp">    -55.84297466 </i>
    <i name="e_0_energy">    -55.84297466 </i>
   </energy>
  </scstep>
  <scstep>
   <time name="total">  194.38  194.37</time>
   <energy>
    <i name="e_fr_energy">    -56.24592341 </i>
    <i name="e_wo_entrp">    -56.24592341 </i>
    <i name="e_0_energy">    -56.24592341 </i>
   </energy>
  </scstep>
  <scstep>
   <time name="total">  194.67  194.65</time>
   <energy>
    <i name="e_fr_energy">    -56.49987765 </i>
    <i name="e_wo_entrp">    -56.49987765 </i>
    <i name="e_0_energy">    -56.49987765 </i>
   </energy>
  </scstep>
  <scstep>
   <time name="total">  194.56  194.54</time>
   <energy>
    <i name="e_fr_energy">    -56.67147670 </i>
    <i name="e_wo_entrp">    -56.67147670 </i>
    <i name="e_0_energy">    -56.67147670 </i>
   </energy>
  </scstep>
  <scstep>
   <time name="total">  193.12  193.10</time>
   <energy>
    <i name="e_fr_energy">    -56.78235603 </i>
    <i name="e_wo_entrp">    -56.78235603 </i>
    <i name="e_0_energy">    -56.78235603 </i>
   </energy>
  </scstep>
  <scstep>
   <time name="total">  189.79  189.77</time>
   <energy>
    <i name="e_fr_energy">    -56.85397304 </i>
    <i name="e_wo_entrp">    -56.85397304 </i>
    <i name="e_0_energy">    -56.85397304 </i>
   </energy>
  </scstep>
  <scstep>
   <time name="total">  195.29  195.28</time>
   <energy>
    <i name="e_fr_energy">    -56.89979621 </i>
    <i name="e_wo_entrp">    -56.89979621 </i>
    <i name="e_0_energy">    -56.89979621 </i>
   </energy>
  </scstep>
  <scstep>
   <time name="total">  195.50  195.48</time>
   <energy>
    <i name="e_fr_energy">    -56.92881342 </i>
    <i name="e_wo_entrp">    -56.92881342 </i>
    <i name="e_0_energy">    -56.92881342 </i>
   </energy>
  </scstep>
  <scstep>
   <time name="total">  186.75  186.74</time>
   <energy>
    <i name="e_fr_energy">    -56.94690131 </i>
    <i name="e_wo_entrp">    -56.94690131 </i>
    <i name="e_0_energy">    -56.94690131 </i>
   </energy>
  </scstep>
  <scstep>
   <time name="total">  193.66  193.64</time>
   <energy>
    <i name="e_fr_energy">    -56.95794782 </i>
    <i name="e_wo_entrp">    -56.95794782 </i>
    <i name="e_0_energy">    -56.95794782 </i>
   </energy>
  </scstep>
  <scstep>
   <time name="total">  193.79  193.78</time>
   <energy>
    <i name="e_fr_energy">    -56.96457616 </i>
    <i name="e_wo_entrp">    -56.96457616 </i>
    <i name="e_0_energy">    -56.96457616 </i>
   </energy>
  </scstep>
  <scstep>
   <time name="total">  194.17  194.15</time>
   <energy>
    <i name="e_fr_energy">    -56.96849572 </i>
    <i name="e_wo_entrp">    -56.96849572 </i>
    <i name="e_0_energy">    -56.96849572 </i>
   </energy>
  </scstep>
  <scstep>
   <time name="total">  195.21  195.20</time>
   <energy>
    <i name="e_fr_energy">    -56.97082010 </i>
    <i name="e_wo_entrp">    -56.97082010 </i>
    <i name="e_0_energy">    -56.97082010 </i>
   </energy>
  </scstep>
  <scstep>
   <time name="total">  195.37  195.36</time>
   <energy>
    <i name="e_fr_energy">    -56.97226028 </i>
    <i name="e_wo_entrp">    -56.97226028 </i>
    <i name="e_0_energy">    -56.97226028 </i>
   </energy>
  </scstep>
  <scstep>
   <time name="total">  195.13  195.13</time>
   <energy>
    <i name="e_fr_energy">    -56.97321910 </i>
    <i name="e_wo_entrp">    -56.97321910 </i>
    <i name="e_0_energy">    -56.97321910 </i>
   </energy>
  </scstep>
  <scstep>
   <time name="total">  193.15  193.13</time>
   <energy>
    <i name="e_fr_energy">    -56.97390813 </i>
    <i name="e_wo_entrp">    -56.97390813 </i>
    <i name="e_0_energy">    -56.97390813 </i>
   </energy>
  </scstep>
  <scstep>
   <time name="total">  194.30  194.28</time>
   <energy>
    <i name="e_fr_energy">    -56.97443645 </i>
    <i name="e_wo_entrp">    -56.97443645 </i>
    <i name="e_0_energy">    -56.97443645 </i>
   </energy>
  </scstep>
  <scstep>
   <time name="total">  194.78  194.76</time>
   <energy>
    <i name="e_fr_energy">    -56.97485034 </i>
    <i name="e_wo_entrp">    -56.97485034 </i>
    <i name="e_0_energy">    -56.97485034 </i>
   </energy>
  </scstep>
  <scstep>
   <time name="total">  190.78  190.79</time>
   <energy>
    <i name="e_fr_energy">    -56.97517297 </i>
    <i name="e_wo_entrp">    -56.97517297 </i>
    <i name="e_0_energy">    -56.97517297 </i>
   </energy>
  </scstep>
  <scstep>
   <time name="total">  190.56  190.57</time>
   <energy>
    <i name="e_fr_energy">    -56.97541791 </i>
    <i name="e_wo_entrp">    -56.97541791 </i>
    <i name="e_0_energy">    -56.97541791 </i>
   </energy>
  </scstep>
  <scstep>
   <time name="total">  192.18  192.17</time>
   <energy>
    <i name="e_fr_energy">    -56.97559318 </i>
    <i name="e_wo_entrp">    -56.97559318 </i>
    <i name="e_0_energy">    -56.97559318 </i>
   </energy>
  </scstep>
  <scstep>
   <time name="total">  194.39  194.39</time>
   <energy>
    <i name="e_fr_energy">    -56.97570709 </i>
    <i name="e_wo_entrp">    -56.97570709 </i>
    <i name="e_0_energy">    -56.97570709 </i>
   </energy>
  </scstep>
  <scstep>
   <time name="total">  193.93  193.92</time>
   <energy>
    <i name="e_fr_energy">    -56.97578722 </i>
    <i name="e_wo_entrp">    -56.97578722 </i>
    <i name="e_0_energy">    -56.97578722 </i>
   </energy>
  </scstep>
  <scstep>
   <time name="total">  192.68  192.67</time>
   <energy>
    <i name="e_fr_energy">    -56.97587677 </i>
    <i name="e_wo_entrp">    -56.97587677 </i>
    <i name="e_0_energy">    -56.97587677 </i>
   </energy>
  </scstep>
  <scstep>
   <time name="total">  191.83  191.84</time>
   <energy>
    <i name="e_fr_energy">    -56.97600273 </i>
    <i name="e_wo_entrp">    -56.97600273 </i>
    <i name="e_0_energy">    -56.97600273 </i>
   </energy>
  </scstep>
  <scstep>
   <time name="total">  193.69  193.70</time>
   <energy>
    <i name="e_fr_energy">    -56.97614474 </i>
    <i name="e_wo_entrp">    -56.97614474 </i>
    <i name="e_0_energy">    -56.97614474 </i>
   </energy>
  </scstep>
  <scstep>
   <time name="total">  190.60  190.60</time>
   <energy>
    <i name="e_fr_energy">    -56.97627210 </i>
    <i name="e_wo_entrp">    -56.97627210 </i>
    <i name="e_0_energy">    -56.97627210 </i>
   </energy>
  </scstep>
  <scstep>
   <time name="total">  194.27  194.26</time>
   <energy>
    <i name="e_fr_energy">    -56.97635096 </i>
    <i name="e_wo_entrp">    -56.97635096 </i>
    <i name="e_0_energy">    -56.97635096 </i>
   </energy>
  </scstep>
  <scstep>
   <time name="total">  192.76  192.76</time>
   <energy>
    <i name="e_fr_energy">    -56.97639928 </i>
    <i name="e_wo_entrp">    -56.97639928 </i>
    <i name="e_0_energy">    -56.97639928 </i>
   </energy>
  </scstep>
  <scstep>
   <time name="total">  196.21  196.20</time>
   <energy>
    <i name="e_fr_energy">    -56.97643691 </i>
    <i name="e_wo_entrp">    -56.97643691 </i>
    <i name="e_0_energy">    -56.97643691 </i>
   </energy>
  </scstep>
  <scstep>
   <time name="total">  196.25  196.24</time>
   <energy>
    <i name="e_fr_energy">    -56.97646515 </i>
    <i name="e_wo_entrp">    -56.97646515 </i>
    <i name="e_0_energy">    -56.97646515 </i>
   </energy>
  </scstep>
  <scstep>
   <time name="total">  195.33  195.32</time>
   <energy>
    <i name="e_fr_energy">    -56.97648755 </i>
    <i name="e_wo_entrp">    -56.97648755 </i>
    <i name="e_0_energy">    -56.97648755 </i>
   </energy>
  </scstep>
  <scstep>
   <time name="total">  190.81  190.81</time>
   <energy>
    <i name="e_fr_energy">    -56.97650684 </i>
    <i name="e_wo_entrp">    -56.97650684 </i>
    <i name="e_0_energy">    -56.97650684 </i>
   </energy>
  </scstep>
  <scstep>
   <time name="total">  194.21  194.20</time>
   <energy>
    <i name="e_fr_energy">    -56.97652397 </i>
    <i name="e_wo_entrp">    -56.97652397 </i>
    <i name="e_0_energy">    -56.97652397 </i>
   </energy>
  </scstep>
  <scstep>
   <time name="total">  192.15  192.15</time>
   <energy>
    <i name="e_fr_energy">    -56.97653964 </i>
    <i name="e_wo_entrp">    -56.97653964 </i>
    <i name="e_0_energy">    -56.97653964 </i>
   </energy>
  </scstep>
  <scstep>
   <time name="total">  195.04  195.03</time>
   <energy>
    <i name="e_fr_energy">    -56.97655390 </i>
    <i name="e_wo_entrp">    -56.97655390 </i>
    <i name="e_0_energy">    -56.97655390 </i>
   </energy>
  </scstep>
  <scstep>
   <time name="total">  194.88  194.88</time>
   <energy>
    <i name="e_fr_energy">    -56.97656672 </i>
    <i name="e_wo_entrp">    -56.97656672 </i>
    <i name="e_0_energy">    -56.97656672 </i>
   </energy>
  </scstep>
  <scstep>
   <time name="total">  194.86  194.86</time>
   <energy>
    <i name="e_fr_energy">    -56.97657762 </i>
    <i name="e_wo_entrp">    -56.97657762 </i>
    <i name="e_0_energy">    -56.97657762 </i>
   </energy>
  </scstep>
  <scstep>
   <time name="total">  190.76  190.76</time>
   <energy>
    <i name="e_fr_energy">    -56.97658626 </i>
    <i name="e_wo_entrp">    -56.97658626 </i>
    <i name="e_0_energy">    -56.97658626 </i>
   </energy>
  </scstep>
  <scstep>
   <time name="total">  195.10  195.08</time>
   <energy>
    <i name="e_fr_energy">    -56.97659168 </i>
    <i name="e_wo_entrp">    -56.97659168 </i>
    <i name="e_0_energy">    -56.97659168 </i>
   </energy>
  </scstep>
  <scstep>
   <time name="total">  194.51  194.50</time>
   <energy>
    <i name="e_fr_energy">    -56.97659436 </i>
    <i name="e_wo_entrp">    -56.97659436 </i>
    <i name="e_0_energy">    -56.97659436 </i>
   </energy>
  </scstep>
  <scstep>
   <time name="total">  193.67  193.66</time>
   <energy>
    <i name="e_fr_energy">    -56.97659391 </i>
    <i name="e_wo_entrp">    -56.97659391 </i>
    <i name="e_0_energy">    -56.97659391 </i>
   </energy>
  </scstep>
  <scstep>
   <time name="total">  195.48  195.47</time>
   <energy>
    <i name="e_fr_energy">    -56.97659315 </i>
    <i name="e_wo_entrp">    -56.97659315 </i>
    <i name="e_0_energy">    -56.97659315 </i>
   </energy>
  </scstep>
  <scstep>
   <time name="total">  194.68  194.67</time>
   <energy>
    <i name="e_fr_energy">    -56.97659284 </i>
    <i name="e_wo_entrp">    -56.97659284 </i>
    <i name="e_0_energy">    -56.97659284 </i>
   </energy>
  </scstep>
  <scstep>
   <time name="total">  194.27  194.27</time>
   <energy>
    <i name="e_fr_energy">    -56.97659325 </i>
    <i name="e_wo_entrp">    -56.97659325 </i>
    <i name="e_0_energy">    -56.97659325 </i>
   </energy>
  </scstep>
  <scstep>
   <time name="total">  185.93  185.92</time>
   <energy>
    <i name="e_fr_energy">    -56.97659480 </i>
    <i name="e_wo_entrp">    -56.97659480 </i>
    <i name="e_0_energy">    -56.97659480 </i>
   </energy>
  </scstep>
  <scstep>
   <time name="total">  193.06  193.05</time>
   <energy>
    <i name="e_fr_energy">    -56.97659615 </i>
    <i name="e_wo_entrp">    -56.97659615 </i>
    <i name="e_0_energy">    -56.97659615 </i>
   </energy>
  </scstep>
  <scstep>
   <time name="total">  193.43  193.42</time>
   <energy>
    <i name="e_fr_energy">    -56.97660535 </i>
    <i name="e_wo_entrp">    -56.97660535 </i>
    <i name="e_0_energy">    -56.97660535 </i>
   </energy>
  </scstep>
  <scstep>
   <time name="total">  193.22  193.21</time>
   <energy>
    <i name="e_fr_energy">    -56.97661429 </i>
    <i name="e_wo_entrp">    -56.97661429 </i>
    <i name="e_0_energy">    -56.97661429 </i>
   </energy>
  </scstep>
  <scstep>
   <time name="total">  193.56  193.56</time>
   <energy>
    <i name="e_fr_energy">    -56.97662317 </i>
    <i name="e_wo_entrp">    -56.97662317 </i>
    <i name="e_0_energy">    -56.97662317 </i>
   </energy>
  </scstep>
  <scstep>
   <time name="total">  193.03  193.02</time>
   <energy>
    <i name="e_fr_energy">    -56.97662841 </i>
    <i name="e_wo_entrp">    -56.97662841 </i>
    <i name="e_0_energy">    -56.97662841 </i>
   </energy>
  </scstep>
  <scstep>
   <time name="total">  192.81  192.80</time>
   <energy>
    <i name="e_fr_energy">    -56.97663218 </i>
    <i name="e_wo_entrp">    -56.97663218 </i>
    <i name="e_0_energy">    -56.97663218 </i>
   </energy>
  </scstep>
  <scstep>
   <time name="total">  191.13  191.12</time>
   <energy>
    <i name="e_fr_energy">    -56.97663437 </i>
    <i name="e_wo_entrp">    -56.97663437 </i>
    <i name="e_0_energy">    -56.97663437 </i>
   </energy>
  </scstep>
  <scstep>
   <time name="total">  191.96  191.96</time>
   <energy>
    <i name="e_fr_energy">    -56.97663571 </i>
    <i name="e_wo_entrp">    -56.97663571 </i>
    <i name="e_0_energy">    -56.97663571 </i>
   </energy>
  </scstep>
  <scstep>
   <time name="total">  195.23  195.22</time>
   <energy>
    <i name="e_fr_energy">    -56.97663647 </i>
    <i name="e_wo_entrp">    -56.97663647 </i>
    <i name="e_0_energy">    -56.97663647 </i>
   </energy>
  </scstep>
  <scstep>
   <time name="total">  194.26  194.25</time>
   <energy>
    <i name="e_fr_energy">    -56.97663695 </i>
    <i name="e_wo_entrp">    -56.97663695 </i>
    <i name="e_0_energy">    -56.97663695 </i>
   </energy>
  </scstep>
  <scstep>
   <time name="total">  385.67  385.63</time>
   <energy>
    <i name="alphaZ">     54.34637412 </i>
    <i name="ewald">   4400.59424333 </i>
    <i name="hartreedc">  -5920.82873026 </i>
    <i name="XCdc">    -58.56921579 </i>
    <i name="pawpsdc">    928.08320818 </i>
    <i name="pawaedc">   -806.66932794 </i>
    <i name="eentropy">      0.00000000 </i>
    <i name="bandstr">   -236.61927719 </i>
    <i name="atom">   1523.27991600 </i>
    <i name="e_fr_energy">    -56.97663731 </i>
    <i name="e_wo_entrp">    -56.97663731 </i>
    <i name="e_0_energy">    -56.97663731 </i>
   </energy>
  </scstep>
  <structure>
   <crystal>
    <varray name="basis" >
     <v>       3.18339712       0.00000000       0.00000000 </v>
     <v>      -1.59169856       2.75690277       0.00000000 </v>
     <v>       0.00000000       0.00000000      24.86458601 </v>
    </varray>
    <i name="volume">    218.21947242 </i>
    <varray name="rec_basis" >
     <v>       0.31412983       0.18136294       0.00000000 </v>
     <v>       0.00000000       0.36272589       0.00000000 </v>
     <v>       0.00000000       0.00000000       0.04021784 </v>
    </varray>
   </crystal>
   <varray name="positions" >
    <v>       0.33333300       0.66666700       0.14951355 </v>
    <v>       0.66666700       0.33333300       0.85048645 </v>
    <v>       0.33333300       0.66666700       0.91337155 </v>
    <v>       0.66666700       0.33333300       0.08662845 </v>
    <v>       0.66666600       0.33333300       0.21239664 </v>
    <v>       0.33333400       0.66666700       0.78760336 </v>
   </varray>
  </structure>
  <varray name="forces" >
   <v>      -0.00000000       0.00000000       0.00022651 </v>
   <v>      -0.00000000      -0.00000000      -0.00022651 </v>
   <v>       0.00000000       0.00000000      -0.43458822 </v>
   <v>      -0.00000000      -0.00000000       0.43458822 </v>
   <v>       0.00000000       0.00000000      -0.43700928 </v>
   <v>       0.00000000       0.00000000       0.43700928 </v>
  </varray>
  <energy>
   <i name="e_fr_energy">    -56.97663731 </i>
   <i name="e_wo_entrp">    -56.97663731 </i>
   <i name="e_0_energy">      0.00000000 </i>
  </energy>
  <time name="totalsc">12798.2712798.00</time>
  <eigenvalues>
   <array>
    <dimension dim="1">band</dimension>
    <dimension dim="2">kpoint</dimension>
    <dimension dim="3">spin</dimension>
    <field>eigene</field>
    <field>occ</field>
    <set>
     <set comment="spin 1">
      <set comment="kpoint 1">
       <r>  -16.5947    1.0000 </r>
       <r>  -16.5842    1.0000 </r>
       <r>  -15.2702    1.0000 </r>
       <r>  -15.2514    1.0000 </r>
       <r>   -7.3001    1.0000 </r>
       <r>   -7.2123    1.0000 </r>
       <r>   -3.9185    1.0000 </r>
       <r>   -3.9185    1.0000 </r>
       <r>   -3.9182    1.0000 </r>
       <r>   -3.9182    1.0000 </r>
       <r>   -3.1461    1.0000 </r>
       <r>   -2.8502    1.0000 </r>
       <r>   -2.5770    1.0000 </r>
       <r>   -2.5770    1.0000 </r>
       <r>   -2.5758    1.0000 </r>
       <r>   -2.5758    1.0000 </r>
       <r>   -1.0733    1.0000 </r>
       <r>   -0.8747    1.0000 </r>
       <r>    2.6019    0.0000 </r>
       <r>    2.6076    0.0000 </r>
       <r>    2.6547    0.0000 </r>
       <r>    2.6947    0.0000 </r>
       <r>    2.8248    0.0000 </r>
       <r>    4.2890    0.0000 </r>
      </set>
      <set comment="kpoint 2">
       <r>  -16.4409    1.0000 </r>
       <r>  -16.4305    1.0000 </r>
       <r>  -15.1951    1.0000 </r>
       <r>  -15.1771    1.0000 </r>
       <r>   -7.1166    1.0000 </r>
       <r>   -7.0294    1.0000 </r>
       <r>   -4.2688    1.0000 </r>
       <r>   -4.2679    1.0000 </r>
       <r>   -3.7468    1.0000 </r>
       <r>   -3.7462    1.0000 </r>
       <r>   -3.6853    1.0000 </r>
       <r>   -3.5412    1.0000 </r>
       <r>   -2.8338    1.0000 </r>
       <r>   -2.8324    1.0000 </r>
       <r>   -2.3106    1.0000 </r>
       <r>   -2.1812    1.0000 </r>
       <r>   -1.1501    1.0000 </r>
       <r>   -0.9971    1.0000 </r>
       <r>    2.4156    0.0000 </r>
       <r>    2.4201    0.0000 </r>
       <r>    2.4459    0.0000 </r>
       <r>    2.5249    0.0000 </r>
       <r>    2.6818    0.0000 </r>
       <r>    2.8230    0.0000 </r>
      </set>
      <set comment="kpoint 3">
       <r>  -16.0118    1.0000 </r>
       <r>  -16.0019    1.0000 </r>
       <r>  -14.9867    1.0000 </r>
       <r>  -14.9713    1.0000 </r>
       <r>   -6.7028    1.0000 </r>
       <r>   -6.6239    1.0000 </r>
       <r>   -5.0004    1.0000 </r>
       <r>   -4.9923    1.0000 </r>
       <r>   -4.5102    1.0000 </r>
       <r>   -4.4326    1.0000 </r>
       <r>   -3.3963    1.0000 </r>
       <r>   -3.3944    1.0000 </r>
       <r>   -3.2857    1.0000 </r>
       <r>   -3.2844    1.0000 </r>
       <r>   -2.3909    1.0000 </r>
       <r>   -2.2634    1.0000 </r>
       <r>   -1.5163    1.0000 </r>
       <r>   -1.4593    1.0000 </r>
       <r>    1.8492    0.0000 </r>
       <r>    2.0121    0.0000 </r>
       <r>    2.2560    0.0000 </r>
       <r>    2.2951    0.0000 </r>
       <r>    2.4741    0.0000 </r>
       <r>    2.8538    0.0000 </r>
      </set>
      <set comment="kpoint 4">
       <r>  -15.4123    1.0000 </r>
       <r>  -15.4038    1.0000 </r>
       <r>  -14.7007    1.0000 </r>
       <r>  -14.6892    1.0000 </r>
       <r>   -6.6738    1.0000 </r>
       <r>   -6.6375    1.0000 </r>
       <r>   -5.4108    1.0000 </r>
       <r>   -5.3690    1.0000 </r>
       <r>   -5.3537    1.0000 </r>
       <r>   -5.3152    1.0000 </r>
       <r>   -3.9566    1.0000 </r>
       <r>   -3.9544    1.0000 </r>
       <r>   -2.7788    1.0000 </r>
       <r>   -2.7035    1.0000 </r>
       <r>   -2.7006    1.0000 </r>
       <r>   -2.6892    1.0000 </r>
       <r>   -2.0080    1.0000 </r>
       <r>   -1.9874    1.0000 </r>
       <r>    1.8757    0.0000 </r>
       <r>    1.9497    0.0000 </r>
       <r>    1.9572    0.0000 </r>
       <r>    2.0285    0.0000 </r>
       <r>    3.0007    0.0000 </r>
       <r>    3.1585    0.0000 </r>
      </set>
      <set comment="kpoint 5">
       <r>  -14.8446    1.0000 </r>
       <r>  -14.8387    1.0000 </r>
       <r>  -14.4387    1.0000 </r>
       <r>  -14.4319    1.0000 </r>
       <r>   -7.1719    1.0000 </r>
       <r>   -7.1554    1.0000 </r>
       <r>   -6.0586    1.0000 </r>
       <r>   -6.0384    1.0000 </r>
       <r>   -5.4929    1.0000 </r>
       <r>   -5.4480    1.0000 </r>
       <r>   -4.3418    1.0000 </r>
       <r>   -4.3395    1.0000 </r>
       <r>   -3.0640    1.0000 </r>
       <r>   -3.0175    1.0000 </r>
       <r>   -2.2457    1.0000 </r>
       <r>   -2.2405    1.0000 </r>
       <r>   -1.9586    1.0000 </r>
       <r>   -1.9341    1.0000 </r>
       <r>    1.8802    0.0000 </r>
       <r>    1.8844    0.0000 </r>
       <r>    2.2311    0.0000 </r>
       <r>    2.3092    0.0000 </r>
       <r>    3.5803    0.0000 </r>
       <r>    3.9495    0.0000 </r>
      </set>
      <set comment="kpoint 6">
       <r>  -14.5989    1.0000 </r>
       <r>  -14.5952    1.0000 </r>
       <r>  -14.3290    1.0000 </r>
       <r>  -14.3253    1.0000 </r>
       <r>   -7.4243    1.0000 </r>
       <r>   -7.4100    1.0000 </r>
       <r>   -6.3296    1.0000 </r>
       <r>   -6.3153    1.0000 </r>
       <r>   -5.5943    1.0000 </r>
       <r>   -5.5530    1.0000 </r>
       <r>   -4.4771    1.0000 </r>
       <r>   -4.4748    1.0000 </r>
       <r>   -3.1444    1.0000 </r>
       <r>   -3.1369    1.0000 </r>
       <r>   -2.0823    1.0000 </r>
       <r>   -2.0759    1.0000 </r>
       <r>   -1.7299    1.0000 </r>
       <r>   -1.7269    1.0000 </r>
       <r>    1.9096    0.0000 </r>
       <r>    1.9118    0.0000 </r>
       <r>    2.4676    0.0000 </r>
       <r>    2.4983    0.0000 </r>
       <r>    3.7910    0.0000 </r>
       <r>    3.9630    0.0000 </r>
      </set>
      <set comment="kpoint 7">
       <r>  -16.1490    1.0000 </r>
       <r>  -16.1390    1.0000 </r>
       <r>  -15.0529    1.0000 </r>
       <r>  -15.0367    1.0000 </r>
       <r>   -6.8065    1.0000 </r>
       <r>   -6.7228    1.0000 </r>
       <r>   -4.7910    1.0000 </r>
       <r>   -4.7892    1.0000 </r>
       <r>   -4.2017    1.0000 </r>
       <r>   -4.1002    1.0000 </r>
       <r>   -3.4564    1.0000 </r>
       <r>   -3.4550    1.0000 </r>
       <r>   -3.4536    1.0000 </r>
       <r>   -3.4476    1.0000 </r>
       <r>   -2.1498    1.0000 </r>
       <r>   -2.0276    1.0000 </r>
       <r>   -1.3758    1.0000 </r>
       <r>   -1.2949    1.0000 </r>
       <r>    1.9296    0.0000 </r>
       <r>    2.0671    0.0000 </r>
       <r>    2.2611    0.0000 </r>
       <r>    2.3219    0.0000 </r>
       <r>    2.3556    0.0000 </r>
       <r>    2.4596    0.0000 </r>
      </set>
      <set comment="kpoint 8">
       <r>  -15.6314    1.0000 </r>
       <r>  -15.6222    1.0000 </r>
       <r>  -14.8025    1.0000 </r>
       <r>  -14.7894    1.0000 </r>
       <r>   -6.5265    1.0000 </r>
       <r>   -6.4696    1.0000 </r>
       <r>   -5.2982    1.0000 </r>
       <r>   -5.2750    1.0000 </r>
       <r>   -4.9192    1.0000 </r>
       <r>   -4.8736    1.0000 </r>
       <r>   -4.1773    1.0000 </r>
       <r>   -4.1504    1.0000 </r>
       <r>   -3.0976    1.0000 </r>
       <r>   -3.0964    1.0000 </r>
       <r>   -2.3182    1.0000 </r>
       <r>   -2.2376    1.0000 </r>
       <r>   -1.8130    1.0000 </r>
       <r>   -1.7950    1.0000 </r>
       <r>    1.6330    0.0000 </r>
       <r>    1.7659    0.0000 </r>
       <r>    2.1340    0.0000 </r>
       <r>    2.1924    0.0000 </r>
       <r>    2.4943    0.0000 </r>
       <r>    2.6722    0.0000 </r>
      </set>
      <set comment="kpoint 9">
       <r>  -15.0362    1.0000 </r>
       <r>  -15.0291    1.0000 </r>
       <r>  -14.5196    1.0000 </r>
       <r>  -14.5108    1.0000 </r>
       <r>   -6.8384    1.0000 </r>
       <r>   -6.8172    1.0000 </r>
       <r>   -5.7972    1.0000 </r>
       <r>   -5.7805    1.0000 </r>
       <r>   -5.3521    1.0000 </r>
       <r>   -5.3082    1.0000 </r>
       <r>   -4.4604    1.0000 </r>
       <r>   -4.4333    1.0000 </r>
       <r>   -2.9876    1.0000 </r>
       <r>   -2.9822    1.0000 </r>
       <r>   -2.7527    1.0000 </r>
       <r>   -2.7105    1.0000 </r>
       <r>   -1.8456    1.0000 </r>
       <r>   -1.8379    1.0000 </r>
       <r>    1.7471    0.0000 </r>
       <r>    1.8389    0.0000 </r>
       <r>    2.1999    0.0000 </r>
       <r>    2.2397    0.0000 </r>
       <r>    3.0755    0.0000 </r>
       <r>    3.1932    0.0000 </r>
      </set>
      <set comment="kpoint 10">
       <r>  -14.6111    1.0000 </r>
       <r>  -14.6069    1.0000 </r>
       <r>  -14.3228    1.0000 </r>
       <r>  -14.3184    1.0000 </r>
       <r>   -7.2086    1.0000 </r>
       <r>   -7.1944    1.0000 </r>
       <r>   -6.3594    1.0000 </r>
       <r>   -6.3513    1.0000 </r>
       <r>   -5.5025    1.0000 </r>
       <r>   -5.4627    1.0000 </r>
       <r>   -4.5161    1.0000 </r>
       <r>   -4.5011    1.0000 </r>
       <r>   -3.0845    1.0000 </r>
       <r>   -3.0654    1.0000 </r>
       <r>   -2.8688    1.0000 </r>
       <r>   -2.8615    1.0000 </r>
       <r>   -1.5222    1.0000 </r>
       <r>   -1.5126    1.0000 </r>
       <r>    1.8938    0.0000 </r>
       <r>    1.9171    0.0000 </r>
       <r>    2.4723    0.0000 </r>
       <r>    2.5134    0.0000 </r>
       <r>    3.6427    0.0000 </r>
       <r>    3.7415    0.0000 </r>
      </set>
      <set comment="kpoint 11">
       <r>  -15.1093    1.0000 </r>
       <r>  -15.1018    1.0000 </r>
       <r>  -14.5478    1.0000 </r>
       <r>  -14.5383    1.0000 </r>
       <r>   -6.6199    1.0000 </r>
       <r>   -6.5940    1.0000 </r>
       <r>   -5.6175    1.0000 </r>
       <r>   -5.6093    1.0000 </r>
       <r>   -5.2068    1.0000 </r>
       <r>   -5.1714    1.0000 </r>
       <r>   -4.6980    1.0000 </r>
       <r>   -4.6410    1.0000 </r>
       <r>   -3.4960    1.0000 </r>
       <r>   -3.4950    1.0000 </r>
       <r>   -2.4702    1.0000 </r>
       <r>   -2.4398    1.0000 </r>
       <r>   -1.8242    1.0000 </r>
       <r>   -1.8231    1.0000 </r>
       <r>    1.6162    0.0000 </r>
       <r>    1.7613    0.0000 </r>
       <r>    2.2500    0.0000 </r>
       <r>    2.2719    0.0000 </r>
       <r>    2.6735    0.0000 </r>
       <r>    2.7845    0.0000 </r>
      </set>
      <set comment="kpoint 12">
       <r>  -14.6305    1.0000 </r>
       <r>  -14.6256    1.0000 </r>
       <r>  -14.3126    1.0000 </r>
       <r>  -14.3072    1.0000 </r>
       <r>   -6.7850    1.0000 </r>
       <r>   -6.7706    1.0000 </r>
       <r>   -6.4042    1.0000 </r>
       <r>   -6.4001    1.0000 </r>
       <r>   -5.2081    1.0000 </r>
       <r>   -5.1801    1.0000 </r>
       <r>   -4.6100    1.0000 </r>
       <r>   -4.5672    1.0000 </r>
       <r>   -3.9857    1.0000 </r>
       <r>   -3.9731    1.0000 </r>
       <r>   -2.9315    1.0000 </r>
       <r>   -2.9212    1.0000 </r>
       <r>   -1.4960    1.0000 </r>
       <r>   -1.4898    1.0000 </r>
       <r>    1.7863    0.0000 </r>
       <r>    1.8509    0.0000 </r>
       <r>    2.5327    0.0000 </r>
       <r>    2.5738    0.0000 </r>
       <r>    3.0034    0.0000 </r>
       <r>    3.0991    0.0000 </r>
      </set>
      <set comment="kpoint 13">
       <r>  -14.4297    1.0000 </r>
       <r>  -14.4272    1.0000 </r>
       <r>  -14.2134    1.0000 </r>
       <r>  -14.2108    1.0000 </r>
       <r>   -6.8154    1.0000 </r>
       <r>   -6.8042    1.0000 </r>
       <r>   -6.7093    1.0000 </r>
       <r>   -6.7062    1.0000 </r>
       <r>   -5.4190    1.0000 </r>
       <r>   -5.3884    1.0000 </r>
       <r>   -4.4673    1.0000 </r>
       <r>   -4.4386    1.0000 </r>
       <r>   -4.0597    1.0000 </r>
       <r>   -4.0483    1.0000 </r>
       <r>   -3.2251    1.0000 </r>
       <r>   -3.2027    1.0000 </r>
       <r>   -1.2093    1.0000 </r>
       <r>   -1.1977    1.0000 </r>
       <r>    1.6254    0.0000 </r>
       <r>    1.6353    0.0000 </r>
       <r>    2.9437    0.0000 </r>
       <r>    2.9517    0.0000 </r>
       <r>    3.1506    0.0000 </r>
       <r>    4.1733    0.0000 </r>
      </set>
      <set comment="kpoint 14">
       <r>  -14.3634    1.0000 </r>
       <r>  -14.3615    1.0000 </r>
       <r>  -14.1673    1.0000 </r>
       <r>  -14.1653    1.0000 </r>
       <r>   -6.8707    1.0000 </r>
       <r>   -6.8644    1.0000 </r>
       <r>   -6.3833    1.0000 </r>
       <r>   -6.3746    1.0000 </r>
       <r>   -5.2549    1.0000 </r>
       <r>   -5.2488    1.0000 </r>
       <r>   -4.9336    1.0000 </r>
       <r>   -4.9142    1.0000 </r>
       <r>   -4.3589    1.0000 </r>
       <r>   -4.3296    1.0000 </r>
       <r>   -3.3441    1.0000 </r>
       <r>   -3.3274    1.0000 </r>
       <r>   -1.0471    1.0000 </r>
       <r>   -1.0374    1.0000 </r>
       <r>    1.3757    0.0000 </r>
       <r>    1.3834    0.0000 </r>
       <r>    2.8809    0.0000 </r>
       <r>    2.9822    0.0000 </r>
       <r>    3.1826    0.0000 </r>
       <r>    3.2199    0.0000 </r>
      </set>
     </set>
    </set>
   </array>
  </eigenvalues>
  <separator name="orbital magnetization" >
   <v name="MAGDIPOLOUT">      0.00000000      0.00000000      0.00000000</v>
  </separator>
  <dos>
   <i name="efermi">     -0.87250000 </i>
   <total>
    <array>
     <dimension dim="1">gridpoints</dimension>
     <dimension dim="2">spin</dimension>
     <field>energy</field>
     <field>total</field>
     <field>integrated</field>
     <set>
      <set comment="spin 1">
       <r>    -3.0000     7.8224    27.9249 </r>
       <r>    -2.9975     7.6129    27.9442 </r>
       <r>    -2.9950     7.4033    27.9629 </r>
       <r>    -2.9925     7.1938    27.9812 </r>
       <r>    -2.9900     6.9842    27.9989 </r>
       <r>    -2.9875     6.7754    28.0161 </r>
       <r>    -2.9850     6.6012    28.0328 </r>
       <r>    -2.9825     6.4270    28.0491 </r>
       <r>    -2.9800     6.3807    28.0651 </r>
       <r>    -2.9775     6.3499    28.0810 </r>
       <r>    -2.9750     6.3191    28.0969 </r>
       <r>    -2.9725     6.2882    28.1126 </r>
       <r>    -2.9700     6.2574    28.1283 </r>
       <r>    -2.9675     6.2266    28.1439 </r>
       <r>    -2.9650     6.1958    28.1594 </r>
       <r>    -2.9625     6.1650    28.1749 </r>
       <r>    -2.9600     6.1341    28.1903 </r>
       <r>    -2.9575     6.1033    28.2056 </r>
       <r>    -2.9550     6.0725    28.2208 </r>
       <r>    -2.9525     6.0417    28.2359 </r>
       <r>    -2.9500     6.0109    28.2510 </r>
       <r>    -2.9475     5.9800    28.2660 </r>
       <r>    -2.9450     5.9492    28.2809 </r>
       <r>    -2.9425     5.9184    28.2957 </r>
       <r>    -2.9400     5.8876    28.3105 </r>
       <r>    -2.9375     5.8567    28.3252 </r>
       <r>    -2.9350     5.8259    28.3398 </r>
       <r>    -2.9325     5.7951    28.3543 </r>
       <r>    -2.9300     5.7517    28.3687 </r>
       <r>    -2.9275     5.7508    28.3831 </r>
       <r>    -2.9250     5.7500    28.3975 </r>
       <r>    -2.9225     5.7491    28.4118 </r>
       <r>    -2.9200     5.7118    28.4262 </r>
       <r>    -2.9175     5.7310    28.4405 </r>
       <r>    -2.9150     5.7502    28.4548 </r>
       <r>    -2.9125     5.7694    28.4692 </r>
       <r>    -2.9100     5.7886    28.4837 </r>
       <r>    -2.9075     5.8078    28.4982 </r>
       <r>    -2.9050     5.8270    28.5127 </r>
       <r>    -2.9025     5.8462    28.5273 </r>
       <r>    -2.9000     5.8654    28.5419 </r>
       <r>    -2.8975     5.8846    28.5566 </r>
       <r>    -2.8950     5.9038    28.5713 </r>
       <r>    -2.8925     5.9230    28.5861 </r>
       <r>    -2.8900     5.9422    28.6010 </r>
       <r>    -2.8875     5.9614    28.6158 </r>
       <r>    -2.8850     5.9806    28.6308 </r>
       <r>    -2.8825     5.9998    28.6457 </r>
       <r>    -2.8800     6.0190    28.6608 </r>
       <r>    -2.8775     6.0382    28.6758 </r>
       <r>    -2.8750     6.0574    28.6910 </r>
       <r>    -2.8725     6.0766    28.7061 </r>
       <r>    -2.8700     6.0958    28.7213 </r>
       <r>    -2.8675     5.9052    28.7363 </r>
       <r>    -2.8650     5.8755    28.7511 </r>
       <r>    -2.8625     5.8458    28.7657 </r>
       <r>    -2.8600     5.5974    28.7800 </r>
       <r>    -2.8575     5.5352    28.7939 </r>
       <r>    -2.8550     5.4730    28.8077 </r>
       <r>    -2.8525     5.4108    28.8213 </r>
       <r>    -2.8500     5.3486    28.8347 </r>
       <r>    -2.8475     5.2870    28.8480 </r>
       <r>    -2.8450     5.2254    28.8612 </r>
       <r>    -2.8425     5.1638    28.8741 </r>
       <r>    -2.8400     5.1022    28.8870 </r>
       <r>    -2.8375     5.0406    28.8997 </r>
       <r>    -2.8350     4.9790    28.9122 </r>
       <r>    -2.8325     5.1895    28.9249 </r>
       <r>    -2.8300     5.3965    28.9384 </r>
       <r>    -2.8275     5.3285    28.9518 </r>
       <r>    -2.8250     5.2605    28.9651 </r>
       <r>    -2.8225     5.1925    28.9781 </r>
       <r>    -2.8200     5.1244    28.9910 </r>
       <r>    -2.8175     5.0564    29.0038 </r>
       <r>    -2.8150     4.9884    29.0163 </r>
       <r>    -2.8125     4.9204    29.0287 </r>
       <r>    -2.8100     4.8524    29.0409 </r>
       <r>    -2.8075     4.7843    29.0530 </r>
       <r>    -2.8050     4.7163    29.0648 </r>
       <r>    -2.8025     4.6483    29.0766 </r>
       <r>    -2.8000     4.5803    29.0881 </r>
       <r>    -2.7975     4.5123    29.0995 </r>
       <r>    -2.7950     4.4443    29.1107 </r>
       <r>    -2.7925     4.3762    29.1217 </r>
       <r>    -2.7900     4.3082    29.1325 </r>
       <r>    -2.7875     4.2402    29.1432 </r>
       <r>    -2.7850     4.1722    29.1537 </r>
       <r>    -2.7825     4.1042    29.1641 </r>
       <r>    -2.7800     4.0361    29.1743 </r>
       <r>    -2.7775     3.9802    29.1843 </r>
       <r>    -2.7750     3.9350    29.1942 </r>
       <r>    -2.7725     3.8898    29.2039 </r>
       <r>    -2.7700     3.8445    29.2136 </r>
       <r>    -2.7675     3.7993    29.2232 </r>
       <r>    -2.7650     3.7541    29.2326 </r>
       <r>    -2.7625     3.7089    29.2419 </r>
       <r>    -2.7600     3.6637    29.2512 </r>
       <r>    -2.7575     3.6185    29.2603 </r>
       <r>    -2.7550     3.5733    29.2692 </r>
       <r>    -2.7525     3.5328    29.2781 </r>
       <r>    -2.7500     3.5485    29.2870 </r>
       <r>    -2.7475     3.5643    29.2959 </r>
       <r>    -2.7450     3.5800    29.3048 </r>
       <r>    -2.7425     3.5957    29.3138 </r>
       <r>    -2.7400     3.6115    29.3228 </r>
       <r>    -2.7375     3.6272    29.3318 </r>
       <r>    -2.7350     3.6429    29.3409 </r>
       <r>    -2.7325     3.6586    29.3500 </r>
       <r>    -2.7300     3.6744    29.3592 </r>
       <r>    -2.7275     3.6901    29.3684 </r>
       <r>    -2.7250     3.7058    29.3777 </r>
       <r>    -2.7225     3.7215    29.3869 </r>
       <r>    -2.7200     3.7373    29.3963 </r>
       <r>    -2.7175     3.7530    29.4056 </r>
       <r>    -2.7150     3.7687    29.4150 </r>
       <r>    -2.7125     3.7845    29.4245 </r>
       <r>    -2.7100     3.8258    29.4340 </r>
       <r>    -2.7075     3.9655    29.4437 </r>
       <r>    -2.7050     4.1052    29.4538 </r>
       <r>    -2.7025     4.2510    29.4642 </r>
       <r>    -2.7000     4.3938    29.4750 </r>
       <r>    -2.6975     4.4981    29.4862 </r>
       <r>    -2.6950     4.6024    29.4975 </r>
       <r>    -2.6925     4.7067    29.5092 </r>
       <r>    -2.6900     4.8110    29.5211 </r>
       <r>    -2.6875     4.8324    29.5332 </r>
       <r>    -2.6850     4.8147    29.5452 </r>
       <r>    -2.6825     4.7971    29.5572 </r>
       <r>    -2.6800     4.7795    29.5692 </r>
       <r>    -2.6775     4.7618    29.5811 </r>
       <r>    -2.6750     4.7442    29.5930 </r>
       <r>    -2.6725     4.7265    29.6048 </r>
       <r>    -2.6700     4.7089    29.6166 </r>
       <r>    -2.6675     4.6913    29.6284 </r>
       <r>    -2.6650     4.6736    29.6401 </r>
       <r>    -2.6625     4.6560    29.6518 </r>
       <r>    -2.6600     4.6383    29.6634 </r>
       <r>    -2.6575     4.6207    29.6749 </r>
       <r>    -2.6550     4.6031    29.6865 </r>
       <r>    -2.6525     4.5854    29.6980 </r>
       <r>    -2.6500     4.5678    29.7094 </r>
       <r>    -2.6475     4.5501    29.7208 </r>
       <r>    -2.6450     4.5325    29.7322 </r>
       <r>    -2.6425     4.5149    29.7435 </r>
       <r>    -2.6400     4.4972    29.7547 </r>
       <r>    -2.6375     4.4796    29.7660 </r>
       <r>    -2.6350     4.4619    29.7771 </r>
       <r>    -2.6325     4.4443    29.7883 </r>
       <r>    -2.6300     4.4267    29.7994 </r>
       <r>    -2.6275     4.4090    29.8104 </r>
       <r>    -2.6250     4.3914    29.8214 </r>
       <r>    -2.6225     4.3737    29.8324 </r>
       <r>    -2.6200     4.3561    29.8433 </r>
       <r>    -2.6175     4.3384    29.8541 </r>
       <r>    -2.6150     4.3208    29.8650 </r>
       <r>    -2.6125     4.3032    29.8757 </r>
       <r>    -2.6100     4.2855    29.8865 </r>
       <r>    -2.6075     4.2679    29.8972 </r>
       <r>    -2.6050     4.2502    29.9078 </r>
       <r>    -2.6025     4.2326    29.9184 </r>
       <r>    -2.6000     4.2150    29.9290 </r>
       <r>    -2.5975     4.1973    29.9395 </r>
       <r>    -2.5950     4.1797    29.9500 </r>
       <r>    -2.5925     4.1620    29.9604 </r>
       <r>    -2.5900     4.1444    29.9708 </r>
       <r>    -2.5875     4.1268    29.9811 </r>
       <r>    -2.5850     4.1091    29.9914 </r>
       <r>    -2.5825     4.0915    30.0017 </r>
       <r>    -2.5800     4.0738    30.0119 </r>
       <r>    -2.5775     4.0562    30.0220 </r>
       <r>    -2.5750     4.0479    30.0322 </r>
       <r>    -2.5725     4.0456    30.0423 </r>
       <r>    -2.5700     4.0433    30.0524 </r>
       <r>    -2.5675     4.0410    30.0625 </r>
       <r>    -2.5650     4.0387    30.0726 </r>
       <r>    -2.5625     4.0364    30.0827 </r>
       <r>    -2.5600     4.0341    30.0928 </r>
       <r>    -2.5575     4.0318    30.1028 </r>
       <r>    -2.5550     4.0295    30.1129 </r>
       <r>    -2.5525     4.0272    30.1230 </r>
       <r>    -2.5500     4.0249    30.1331 </r>
       <r>    -2.5475     4.0226    30.1431 </r>
       <r>    -2.5450     4.0203    30.1532 </r>
       <r>    -2.5425     4.0180    30.1632 </r>
       <r>    -2.5400     4.0157    30.1733 </r>
       <r>    -2.5375     4.0134    30.1833 </r>
       <r>    -2.5350     4.0111    30.1933 </r>
       <r>    -2.5325     4.0088    30.2034 </r>
       <r>    -2.5300     4.0065    30.2134 </r>
       <r>    -2.5275     4.0042    30.2234 </r>
       <r>    -2.5250     4.0019    30.2334 </r>
       <r>    -2.5225     3.9996    30.2434 </r>
       <r>    -2.5200     3.9973    30.2534 </r>
       <r>    -2.5175     3.9950    30.2634 </r>
       <r>    -2.5150     3.9927    30.2734 </r>
       <r>    -2.5125     3.9904    30.2833 </r>
       <r>    -2.5100     3.9881    30.2933 </r>
       <r>    -2.5075     3.9858    30.3033 </r>
       <r>    -2.5050     3.9835    30.3133 </r>
       <r>    -2.5025     3.9812    30.3232 </r>
       <r>    -2.5000     3.9789    30.3332 </r>
       <r>    -2.4975     3.9766    30.3431 </r>
       <r>    -2.4950     3.9744    30.3530 </r>
       <r>    -2.4925     3.9721    30.3630 </r>
       <r>    -2.4900     3.9698    30.3729 </r>
       <r>    -2.4875     3.9675    30.3828 </r>
       <r>    -2.4850     3.9652    30.3927 </r>
       <r>    -2.4825     3.9629    30.4026 </r>
       <r>    -2.4800     3.9606    30.4126 </r>
       <r>    -2.4775     3.9583    30.4225 </r>
       <r>    -2.4750     3.9560    30.4323 </r>
       <r>    -2.4725     3.9537    30.4422 </r>
       <r>    -2.4700     3.9517    30.4521 </r>
       <r>    -2.4675     3.9544    30.4620 </r>
       <r>    -2.4650     3.9571    30.4719 </r>
       <r>    -2.4625     3.9599    30.4818 </r>
       <r>    -2.4600     3.9626    30.4917 </r>
       <r>    -2.4575     3.9653    30.5016 </r>
       <r>    -2.4550     3.9681    30.5115 </r>
       <r>    -2.4525     3.9708    30.5214 </r>
       <r>    -2.4500     3.9735    30.5314 </r>
       <r>    -2.4475     3.9763    30.5413 </r>
       <r>    -2.4450     3.9790    30.5512 </r>
       <r>    -2.4425     3.9817    30.5612 </r>
       <r>    -2.4400     3.9845    30.5712 </r>
       <r>    -2.4375     3.9893    30.5811 </r>
       <r>    -2.4350     3.9943    30.5911 </r>
       <r>    -2.4325     3.9993    30.6011 </r>
       <r>    -2.4300     4.0044    30.6111 </r>
       <r>    -2.4275     4.0094    30.6211 </r>
       <r>    -2.4250     4.0144    30.6311 </r>
       <r>    -2.4225     4.0194    30.6412 </r>
       <r>    -2.4200     4.0244    30.6512 </r>
       <r>    -2.4175     4.0294    30.6613 </r>
       <r>    -2.4150     4.0344    30.6714 </r>
       <r>    -2.4125     4.0394    30.6815 </r>
       <r>    -2.4100     4.0444    30.6916 </r>
       <r>    -2.4075     4.0494    30.7017 </r>
       <r>    -2.4050     4.0544    30.7118 </r>
       <r>    -2.4025     4.0594    30.7220 </r>
       <r>    -2.4000     4.0645    30.7321 </r>
       <r>    -2.3975     4.0695    30.7423 </r>
       <r>    -2.3950     4.0745    30.7525 </r>
       <r>    -2.3925     4.0795    30.7627 </r>
       <r>    -2.3900     4.0982    30.7729 </r>
       <r>    -2.3875     4.1418    30.7832 </r>
       <r>    -2.3850     4.1854    30.7936 </r>
       <r>    -2.3825     4.2290    30.8041 </r>
       <r>    -2.3800     4.2726    30.8147 </r>
       <r>    -2.3775     4.3162    30.8255 </r>
       <r>    -2.3750     4.3598    30.8363 </r>
       <r>    -2.3725     4.4034    30.8473 </r>
       <r>    -2.3700     4.4470    30.8583 </r>
       <r>    -2.3675     4.4906    30.8695 </r>
       <r>    -2.3650     4.5342    30.8808 </r>
       <r>    -2.3625     4.5778    30.8922 </r>
       <r>    -2.3600     4.6214    30.9037 </r>
       <r>    -2.3575     4.6650    30.9153 </r>
       <r>    -2.3550     4.7086    30.9270 </r>
       <r>    -2.3525     4.7522    30.9388 </r>
       <r>    -2.3500     4.7958    30.9508 </r>
       <r>    -2.3475     4.8394    30.9628 </r>
       <r>    -2.3450     4.8830    30.9750 </r>
       <r>    -2.3425     4.9266    30.9872 </r>
       <r>    -2.3400     4.9702    30.9996 </r>
       <r>    -2.3375     5.0138    31.0121 </r>
       <r>    -2.3350     5.0574    31.0247 </r>
       <r>    -2.3325     5.1010    31.0374 </r>
       <r>    -2.3300     5.1446    31.0502 </r>
       <r>    -2.3275     5.1882    31.0631 </r>
       <r>    -2.3250     5.2318    31.0761 </r>
       <r>    -2.3225     5.2754    31.0892 </r>
       <r>    -2.3200     5.3190    31.1025 </r>
       <r>    -2.3175     5.2739    31.1158 </r>
       <r>    -2.3150     5.2792    31.1290 </r>
       <r>    -2.3125     5.2845    31.1422 </r>
       <r>    -2.3100     5.5681    31.1556 </r>
       <r>    -2.3075     5.5111    31.1694 </r>
       <r>    -2.3050     5.4540    31.1831 </r>
       <r>    -2.3025     5.3970    31.1967 </r>
       <r>    -2.3000     5.3399    31.2101 </r>
       <r>    -2.2975     5.2829    31.2234 </r>
       <r>    -2.2950     5.2259    31.2365 </r>
       <r>    -2.2925     5.1688    31.2495 </r>
       <r>    -2.2900     5.1118    31.2624 </r>
       <r>    -2.2875     5.0547    31.2751 </r>
       <r>    -2.2850     4.9977    31.2876 </r>
       <r>    -2.2825     4.9407    31.3001 </r>
       <r>    -2.2800     4.8836    31.3123 </r>
       <r>    -2.2775     4.8266    31.3245 </r>
       <r>    -2.2750     4.7695    31.3365 </r>
       <r>    -2.2725     4.7125    31.3483 </r>
       <r>    -2.2700     4.6554    31.3600 </r>
       <r>    -2.2675     4.5984    31.3716 </r>
       <r>    -2.2650     4.5414    31.3830 </r>
       <r>    -2.2625     4.5103    31.3943 </r>
       <r>    -2.2600     4.5284    31.4056 </r>
       <r>    -2.2575     4.5465    31.4170 </r>
       <r>    -2.2550     4.5646    31.4284 </r>
       <r>    -2.2525     4.5827    31.4398 </r>
       <r>    -2.2500     4.6008    31.4513 </r>
       <r>    -2.2475     4.6189    31.4628 </r>
       <r>    -2.2450     4.6366    31.4744 </r>
       <r>    -2.2425     4.6533    31.4860 </r>
       <r>    -2.2400     4.6698    31.4976 </r>
       <r>    -2.2375     4.6601    31.5093 </r>
       <r>    -2.2350     4.6113    31.5209 </r>
       <r>    -2.2325     4.5626    31.5324 </r>
       <r>    -2.2300     4.5139    31.5437 </r>
       <r>    -2.2275     4.4652    31.5549 </r>
       <r>    -2.2250     4.4165    31.5660 </r>
       <r>    -2.2225     4.3677    31.5770 </r>
       <r>    -2.2200     4.3190    31.5879 </r>
       <r>    -2.2175     4.2703    31.5986 </r>
       <r>    -2.2150     4.2216    31.6092 </r>
       <r>    -2.2125     4.1729    31.6197 </r>
       <r>    -2.2100     4.1242    31.6301 </r>
       <r>    -2.2075     4.0754    31.6403 </r>
       <r>    -2.2050     4.0267    31.6505 </r>
       <r>    -2.2025     3.9780    31.6605 </r>
       <r>    -2.2000     3.9293    31.6704 </r>
       <r>    -2.1975     3.8806    31.6801 </r>
       <r>    -2.1950     3.8319    31.6898 </r>
       <r>    -2.1925     3.7831    31.6993 </r>
       <r>    -2.1900     3.7344    31.7087 </r>
       <r>    -2.1875     3.6857    31.7180 </r>
       <r>    -2.1850     3.6370    31.7271 </r>
       <r>    -2.1825     3.5883    31.7361 </r>
       <r>    -2.1800     3.9869    31.7456 </r>
       <r>    -2.1775     3.8760    31.7554 </r>
       <r>    -2.1750     3.7651    31.7650 </r>
       <r>    -2.1725     3.6542    31.7743 </r>
       <r>    -2.1700     3.5433    31.7833 </r>
       <r>    -2.1675     3.4323    31.7920 </r>
       <r>    -2.1650     3.3214    31.8004 </r>
       <r>    -2.1625     3.2105    31.8086 </r>
       <r>    -2.1600     3.0996    31.8165 </r>
       <r>    -2.1575     2.9887    31.8241 </r>
       <r>    -2.1550     2.8778    31.8314 </r>
       <r>    -2.1525     2.7668    31.8385 </r>
       <r>    -2.1500     2.6559    31.8453 </r>
       <r>    -2.1475     2.5930    31.8518 </r>
       <r>    -2.1450     2.5345    31.8582 </r>
       <r>    -2.1425     2.4760    31.8645 </r>
       <r>    -2.1400     2.4175    31.8706 </r>
       <r>    -2.1375     2.3590    31.8766 </r>
       <r>    -2.1350     2.3005    31.8824 </r>
       <r>    -2.1325     2.2420    31.8881 </r>
       <r>    -2.1300     2.1835    31.8936 </r>
       <r>    -2.1275     2.1250    31.8990 </r>
       <r>    -2.1250     2.0665    31.9042 </r>
       <r>    -2.1225     2.0080    31.9093 </r>
       <r>    -2.1200     1.9496    31.9143 </r>
       <r>    -2.1175     1.8911    31.9191 </r>
       <r>    -2.1150     1.8326    31.9237 </r>
       <r>    -2.1125     1.7741    31.9282 </r>
       <r>    -2.1100     1.7156    31.9326 </r>
       <r>    -2.1075     1.6571    31.9368 </r>
       <r>    -2.1050     1.5986    31.9409 </r>
       <r>    -2.1025     1.5401    31.9448 </r>
       <r>    -2.1000     1.4816    31.9486 </r>
       <r>    -2.0975     1.4231    31.9522 </r>
       <r>    -2.0950     1.3646    31.9557 </r>
       <r>    -2.0925     1.3061    31.9590 </r>
       <r>    -2.0900     1.2476    31.9622 </r>
       <r>    -2.0875     1.1891    31.9653 </r>
       <r>    -2.0850     1.1306    31.9682 </r>
       <r>    -2.0825     1.0721    31.9709 </r>
       <r>    -2.0800     1.0183    31.9735 </r>
       <r>    -2.0775     0.9650    31.9760 </r>
       <r>    -2.0750     0.9136    31.9784 </r>
       <r>    -2.0725     0.8653    31.9806 </r>
       <r>    -2.0700     0.8171    31.9827 </r>
       <r>    -2.0675     0.7689    31.9847 </r>
       <r>    -2.0650     0.7207    31.9865 </r>
       <r>    -2.0625     0.6725    31.9883 </r>
       <r>    -2.0600     0.6243    31.9899 </r>
       <r>    -2.0575     0.5760    31.9914 </r>
       <r>    -2.0550     0.5278    31.9928 </r>
       <r>    -2.0525     0.4796    31.9940 </r>
       <r>    -2.0500     0.4314    31.9952 </r>
       <r>    -2.0475     0.3832    31.9962 </r>
       <r>    -2.0450     0.3349    31.9971 </r>
       <r>    -2.0425     0.2867    31.9979 </r>
       <r>    -2.0400     0.2385    31.9985 </r>
       <r>    -2.0375     0.1903    31.9991 </r>
       <r>    -2.0350     0.1421    31.9995 </r>
       <r>    -2.0325     0.0938    31.9998 </r>
       <r>    -2.0300     0.0456    31.9999 </r>
       <r>    -2.0275     0.0000    32.0000 </r>
       <r>    -2.0250     0.0000    32.0000 </r>
       <r>    -2.0225     0.0000    32.0000 </r>
       <r>    -2.0200     0.0000    32.0000 </r>
       <r>    -2.0175     0.0000    32.0000 </r>
       <r>    -2.0150     0.0000    32.0000 </r>
       <r>    -2.0125     0.0000    32.0000 </r>
       <r>    -2.0100     0.0000    32.0000 </r>
       <r>    -2.0075     0.0198    32.0000 </r>
       <r>    -2.0050     0.1198    32.0002 </r>
       <r>    -2.0025     0.2199    32.0006 </r>
       <r>    -2.0000     0.3199    32.0013 </r>
       <r>    -1.9975     0.4199    32.0022 </r>
       <r>    -1.9950     0.5200    32.0034 </r>
       <r>    -1.9925     0.6200    32.0048 </r>
       <r>    -1.9900     0.7201    32.0065 </r>
       <r>    -1.9875     0.8201    32.0084 </r>
       <r>    -1.9850     1.0191    32.0107 </r>
       <r>    -1.9825     1.2212    32.0135 </r>
       <r>    -1.9800     1.4233    32.0168 </r>
       <r>    -1.9775     1.6254    32.0206 </r>
       <r>    -1.9750     1.8275    32.0249 </r>
       <r>    -1.9725     2.0296    32.0298 </r>
       <r>    -1.9700     2.2317    32.0351 </r>
       <r>    -1.9675     2.4338    32.0409 </r>
       <r>    -1.9650     2.6359    32.0472 </r>
       <r>    -1.9625     2.8380    32.0541 </r>
       <r>    -1.9600     3.0401    32.0614 </r>
       <r>    -1.9575     3.2024    32.0693 </r>
       <r>    -1.9550     3.3152    32.0774 </r>
       <r>    -1.9525     3.4279    32.0858 </r>
       <r>    -1.9500     3.5407    32.0946 </r>
       <r>    -1.9475     3.6534    32.1035 </r>
       <r>    -1.9450     3.7661    32.1128 </r>
       <r>    -1.9425     3.8789    32.1224 </r>
       <r>    -1.9400     3.9916    32.1322 </r>
       <r>    -1.9375     4.1044    32.1423 </r>
       <r>    -1.9350     4.2171    32.1527 </r>
       <r>    -1.9325     4.2680    32.1634 </r>
       <r>    -1.9300     4.2854    32.1741 </r>
       <r>    -1.9275     4.3027    32.1848 </r>
       <r>    -1.9250     4.3201    32.1956 </r>
       <r>    -1.9225     4.3375    32.2064 </r>
       <r>    -1.9200     4.3549    32.2173 </r>
       <r>    -1.9175     4.3723    32.2282 </r>
       <r>    -1.9150     4.3897    32.2391 </r>
       <r>    -1.9125     4.4071    32.2501 </r>
       <r>    -1.9100     4.4244    32.2612 </r>
       <r>    -1.9075     4.4418    32.2722 </r>
       <r>    -1.9050     4.4592    32.2834 </r>
       <r>    -1.9025     4.4766    32.2945 </r>
       <r>    -1.9000     4.4940    32.3058 </r>
       <r>    -1.8975     4.5114    32.3170 </r>
       <r>    -1.8950     4.5288    32.3283 </r>
       <r>    -1.8925     4.5461    32.3397 </r>
       <r>    -1.8900     4.5635    32.3510 </r>
       <r>    -1.8875     4.5809    32.3625 </r>
       <r>    -1.8850     4.5983    32.3739 </r>
       <r>    -1.8825     4.6157    32.3855 </r>
       <r>    -1.8800     4.6331    32.3970 </r>
       <r>    -1.8775     4.6505    32.4086 </r>
       <r>    -1.8750     4.6678    32.4203 </r>
       <r>    -1.8725     4.6852    32.4320 </r>
       <r>    -1.8700     4.7026    32.4437 </r>
       <r>    -1.8675     4.7200    32.4555 </r>
       <r>    -1.8650     4.7374    32.4673 </r>
       <r>    -1.8625     4.7548    32.4792 </r>
       <r>    -1.8600     4.7722    32.4911 </r>
       <r>    -1.8575     4.7895    32.5030 </r>
       <r>    -1.8550     4.8069    32.5150 </r>
       <r>    -1.8525     4.8243    32.5271 </r>
       <r>    -1.8500     4.8417    32.5391 </r>
       <r>    -1.8475     4.8591    32.5513 </r>
       <r>    -1.8450     5.0899    32.5635 </r>
       <r>    -1.8425     5.9544    32.5773 </r>
       <r>    -1.8400     6.8188    32.5933 </r>
       <r>    -1.8375     7.8537    32.6114 </r>
       <r>    -1.8350     9.7085    32.6334 </r>
       <r>    -1.8325    11.5634    32.6600 </r>
       <r>    -1.8300    13.4183    32.6912 </r>
       <r>    -1.8275    15.2731    32.7271 </r>
       <r>    -1.8250    17.1280    32.7676 </r>
       <r>    -1.8225    18.5782    32.8125 </r>
       <r>    -1.8200    19.0541    32.8596 </r>
       <r>    -1.8175    19.5300    32.9078 </r>
       <r>    -1.8150    20.0058    32.9572 </r>
       <r>    -1.8125     9.9627    33.0028 </r>
       <r>    -1.8100     9.7877    33.0275 </r>
       <r>    -1.8075     9.6128    33.0518 </r>
       <r>    -1.8050     9.4378    33.0756 </r>
       <r>    -1.8025     9.2629    33.0990 </r>
       <r>    -1.8000     9.0879    33.1219 </r>
       <r>    -1.7975     8.9130    33.1444 </r>
       <r>    -1.7950     4.7012    33.1664 </r>
       <r>    -1.7925     4.7091    33.1782 </r>
       <r>    -1.7900     4.7170    33.1900 </r>
       <r>    -1.7875     4.7249    33.2018 </r>
       <r>    -1.7850     4.7327    33.2136 </r>
       <r>    -1.7825     4.7406    33.2254 </r>
       <r>    -1.7800     4.7485    33.2373 </r>
       <r>    -1.7775     4.7564    33.2492 </r>
       <r>    -1.7750     4.7642    33.2611 </r>
       <r>    -1.7725     4.7721    33.2730 </r>
       <r>    -1.7700     4.7800    33.2849 </r>
       <r>    -1.7675     4.7879    33.2969 </r>
       <r>    -1.7650     4.7958    33.3089 </r>
       <r>    -1.7625     4.8036    33.3209 </r>
       <r>    -1.7600     4.8115    33.3329 </r>
       <r>    -1.7575     4.8194    33.3449 </r>
       <r>    -1.7550     4.8273    33.3570 </r>
       <r>    -1.7525     4.8352    33.3691 </r>
       <r>    -1.7500     4.8430    33.3812 </r>
       <r>    -1.7475     4.8509    33.3933 </r>
       <r>    -1.7450     4.8588    33.4054 </r>
       <r>    -1.7425     4.8667    33.4176 </r>
       <r>    -1.7400     4.8745    33.4298 </r>
[...]
        <r>  0.0070  0.0112  0.0880  0.0141  0.0000  0.0000  0.0000  0.0000  0.0000 </r>
        <r>  0.0069  0.0104  0.0882  0.0134  0.0000  0.0000  0.0000  0.0000  0.0000 </r>
        <r>  0.0069  0.0103  0.0881  0.0134  0.0000  0.0000  0.0000  0.0000  0.0000 </r>
       </set>
       <set comment="band 17">
        <r>  0.0024  0.0034  0.0000  0.0071  0.1251  0.0000  0.0500  0.0000  0.1353 </r>
        <r>  0.0024  0.0034  0.0000  0.0072  0.1256  0.0000  0.0502  0.0000  0.1358 </r>
        <r>  0.0000  0.0218  0.0051  0.0113  0.0000  0.0000  0.0000  0.0000  0.0000 </r>
        <r>  0.0000  0.0218  0.0051  0.0113  0.0000  0.0000  0.0000  0.0000  0.0000 </r>
        <r>  0.0000  0.0214  0.0054  0.0114  0.0000  0.0000  0.0000  0.0000  0.0000 </r>
        <r>  0.0000  0.0215  0.0054  0.0114  0.0000  0.0000  0.0000  0.0000  0.0000 </r>
       </set>
       <set comment="band 18">
        <r>  0.0022  0.0034  0.0000  0.0070  0.1254  0.0000  0.0513  0.0000  0.1361 </r>
        <r>  0.0022  0.0034  0.0000  0.0070  0.1250  0.0000  0.0511  0.0000  0.1356 </r>
        <r>  0.0000  0.0216  0.0054  0.0116  0.0000  0.0000  0.0000  0.0000  0.0000 </r>
        <r>  0.0000  0.0217  0.0054  0.0116  0.0000  0.0000  0.0000  0.0000  0.0000 </r>
        <r>  0.0000  0.0220  0.0051  0.0115  0.0000  0.0000  0.0000  0.0000  0.0000 </r>
        <r>  0.0000  0.0219  0.0051  0.0114  0.0000  0.0000  0.0000  0.0000  0.0000 </r>
       </set>
       <set comment="band 19">
        <r>  0.0136  0.0016  0.0000  0.0006  0.0363  0.0000  0.2990  0.0000  0.0589 </r>
        <r>  0.0136  0.0016  0.0000  0.0006  0.0365  0.0000  0.3007  0.0000  0.0592 </r>
        <r>  0.0000  0.0066  0.0021  0.0100  0.0000  0.0000  0.0000  0.0000  0.0000 </r>
        <r>  0.0000  0.0065  0.0021  0.0100  0.0000  0.0000  0.0000  0.0000  0.0000 </r>
        <r>  0.0000  0.0065  0.0022  0.0100  0.0000  0.0000  0.0000  0.0000  0.0000 </r>
        <r>  0.0000  0.0066  0.0022  0.0101  0.0000  0.0000  0.0000  0.0000  0.0000 </r>
       </set>
       <set comment="band 20">
        <r>  0.0141  0.0016  0.0000  0.0006  0.0368  0.0000  0.3033  0.0000  0.0566 </r>
        <r>  0.0140  0.0016  0.0000  0.0006  0.0366  0.0000  0.3016  0.0000  0.0562 </r>
        <r>  0.0000  0.0066  0.0022  0.0102  0.0000  0.0000  0.0000  0.0000  0.0000 </r>
        <r>  0.0000  0.0066  0.0022  0.0102  0.0000  0.0000  0.0000  0.0000  0.0000 </r>
        <r>  0.0000  0.0066  0.0021  0.0102  0.0000  0.0000  0.0000  0.0000  0.0000 </r>
        <r>  0.0000  0.0066  0.0021  0.0101  0.0000  0.0000  0.0000  0.0000  0.0000 </r>
       </set>
       <set comment="band 21">
        <r>  0.0015  0.0041  0.0001  0.0104  0.1285  0.0020  0.0189  0.0013  0.1814 </r>
        <r>  0.0018  0.0047  0.0000  0.0121  0.1499  0.0008  0.0221  0.0007  0.2114 </r>
        <r>  0.0020  0.0022  0.0239  0.0022  0.0000  0.0000  0.0000  0.0000  0.0000 </r>
        <r>  0.0018  0.0025  0.0204  0.0024  0.0000  0.0000  0.0000  0.0000  0.0000 </r>
        <r>  0.0015  0.0002  0.0215  0.0010  0.0000  0.0000  0.0000  0.0000  0.0000 </r>
        <r>  0.0019  0.0005  0.0250  0.0015  0.0000  0.0000  0.0000  0.0000  0.0000 </r>
       </set>
       <set comment="band 22">
        <r>  0.0029  0.0045  0.0000  0.0114  0.1516  0.0018  0.0238  0.0009  0.2092 </r>
        <r>  0.0025  0.0038  0.0001  0.0097  0.1298  0.0015  0.0205  0.0012  0.1791 </r>
        <r>  0.0017  0.0003  0.0213  0.0013  0.0000  0.0000  0.0000  0.0000  0.0000 </r>
        <r>  0.0020  0.0011  0.0250  0.0011  0.0000  0.0000  0.0000  0.0000  0.0000 </r>
        <r>  0.0020  0.0021  0.0236  0.0032  0.0000  0.0000  0.0000  0.0000  0.0000 </r>
        <r>  0.0018  0.0025  0.0203  0.0026  0.0000  0.0000  0.0000  0.0000  0.0000 </r>
       </set>
       <set comment="band 23">
        <r>  0.0000  0.0001  0.0018  0.0001  0.0015  0.1656  0.0002  0.0829  0.0018 </r>
        <r>  0.0000  0.0001  0.0018  0.0001  0.0015  0.1610  0.0002  0.0806  0.0018 </r>
        <r>  0.0006  0.0251  0.0001  0.0114  0.0000  0.0000  0.0000  0.0000  0.0000 </r>
        <r>  0.0006  0.0259  0.0001  0.0118  0.0000  0.0000  0.0000  0.0000  0.0000 </r>
        <r>  0.0011  0.0289  0.0005  0.0140  0.0000  0.0000  0.0000  0.0000  0.0000 </r>
        <r>  0.0011  0.0281  0.0005  0.0136  0.0000  0.0000  0.0000  0.0000  0.0000 </r>
       </set>
       <set comment="band 24">
        <r>  0.0001  0.0000  0.0001  0.0000  0.0002  0.1673  0.0001  0.1846  0.0006 </r>
        <r>  0.0001  0.0000  0.0001  0.0000  0.0003  0.1143  0.0001  0.0868  0.0003 </r>
        <r>  0.0102  0.0048  0.0208  0.0011  0.0000  0.0000  0.0000  0.0000  0.0000 </r>
        <r>  0.0188  0.0043  0.0456  0.0006  0.0000  0.0000  0.0000  0.0000  0.0000 </r>
        <r>  0.0169  0.0044  0.0423  0.0004  0.0000  0.0000  0.0000  0.0000  0.0000 </r>
        <r>  0.0084  0.0046  0.0185  0.0010  0.0000  0.0000  0.0000  0.0000  0.0000 </r>
       </set>
      </set>
      <set comment="kpoint 14">
       <set comment="band 1">
        <r>  0.0017  0.0166  0.0000  0.0129  0.0123  0.0000  0.0000  0.0000  0.0150 </r>
        <r>  0.0017  0.0169  0.0000  0.0131  0.0125  0.0000  0.0000  0.0000  0.0153 </r>
        <r>  0.1661  0.0001  0.0029  0.0000  0.0000  0.0000  0.0000  0.0000  0.0000 </r>
        <r>  0.1630  0.0001  0.0028  0.0000  0.0000  0.0000  0.0000  0.0000  0.0000 </r>
        <r>  0.1591  0.0001  0.0028  0.0000  0.0000  0.0000  0.0000  0.0000  0.0000 </r>
        <r>  0.1623  0.0001  0.0029  0.0000  0.0000  0.0000  0.0000  0.0000  0.0000 </r>
       </set>
       <set comment="band 2">
        <r>  0.0017  0.0169  0.0000  0.0131  0.0125  0.0000  0.0000  0.0000  0.0153 </r>
        <r>  0.0017  0.0166  0.0000  0.0129  0.0123  0.0000  0.0000  0.0000  0.0150 </r>
        <r>  0.1598  0.0001  0.0028  0.0000  0.0000  0.0000  0.0000  0.0000  0.0000 </r>
        <r>  0.1630  0.0001  0.0029  0.0000  0.0000  0.0000  0.0000  0.0000  0.0000 </r>
        <r>  0.1655  0.0001  0.0029  0.0000  0.0000  0.0000  0.0000  0.0000  0.0000 </r>
        <r>  0.1624  0.0001  0.0029  0.0000  0.0000  0.0000  0.0000  0.0000  0.0000 </r>
       </set>
       <set comment="band 3">
        <r>  0.0000  0.0000  0.0006  0.0000  0.0000  0.0342  0.0000  0.0256  0.0000 </r>
        <r>  0.0000  0.0000  0.0006  0.0000  0.0000  0.0348  0.0000  0.0261  0.0000 </r>
        <r>  0.1671  0.0000  0.0014  0.0000  0.0000  0.0000  0.0000  0.0000  0.0000 </r>
        <r>  0.1640  0.0000  0.0013  0.0000  0.0000  0.0000  0.0000  0.0000  0.0000 </r>
        <r>  0.1679  0.0000  0.0014  0.0000  0.0000  0.0000  0.0000  0.0000  0.0000 </r>
        <r>  0.1710  0.0000  0.0014  0.0000  0.0000  0.0000  0.0000  0.0000  0.0000 </r>
       </set>
       <set comment="band 4">
        <r>  0.0000  0.0000  0.0006  0.0000  0.0000  0.0349  0.0000  0.0261  0.0000 </r>
        <r>  0.0000  0.0000  0.0006  0.0000  0.0000  0.0342  0.0000  0.0256  0.0000 </r>
        <r>  0.1673  0.0000  0.0014  0.0000  0.0000  0.0000  0.0000  0.0000  0.0000 </r>
        <r>  0.1704  0.0000  0.0014  0.0000  0.0000  0.0000  0.0000  0.0000  0.0000 </r>
        <r>  0.1678  0.0000  0.0014  0.0000  0.0000  0.0000  0.0000  0.0000  0.0000 </r>
        <r>  0.1647  0.0000  0.0014  0.0000  0.0000  0.0000  0.0000  0.0000  0.0000 </r>
       </set>
       <set comment="band 5">
        <r>  0.0000  0.0000  0.0011  0.0000  0.0000  0.0825  0.0000  0.0989  0.0000 </r>
        <r>  0.0000  0.0000  0.0011  0.0000  0.0000  0.0831  0.0000  0.0997  0.0000 </r>
        <r>  0.0004  0.0429  0.0000  0.0360  0.0000  0.0000  0.0000  0.0000  0.0000 </r>
        <r>  0.0004  0.0426  0.0000  0.0358  0.0000  0.0000  0.0000  0.0000  0.0000 </r>
        <r>  0.0004  0.0417  0.0000  0.0353  0.0000  0.0000  0.0000  0.0000  0.0000 </r>
        <r>  0.0004  0.0420  0.0000  0.0356  0.0000  0.0000  0.0000  0.0000  0.0000 </r>
       </set>
       <set comment="band 6">
        <r>  0.0000  0.0000  0.0011  0.0000  0.0000  0.0835  0.0000  0.0998  0.0000 </r>
        <r>  0.0000  0.0000  0.0011  0.0000  0.0000  0.0829  0.0000  0.0991  0.0000 </r>
        <r>  0.0004  0.0418  0.0000  0.0353  0.0000  0.0000  0.0000  0.0000  0.0000 </r>
        <r>  0.0004  0.0421  0.0000  0.0356  0.0000  0.0000  0.0000  0.0000  0.0000 </r>
        <r>  0.0004  0.0429  0.0000  0.0360  0.0000  0.0000  0.0000  0.0000  0.0000 </r>
        <r>  0.0004  0.0426  0.0000  0.0357  0.0000  0.0000  0.0000  0.0000  0.0000 </r>
       </set>
       <set comment="band 7">
        <r>  0.0566  0.0046  0.0000  0.0105  0.0056  0.0000  0.0441  0.0000  0.0161 </r>
        <r>  0.0568  0.0046  0.0000  0.0105  0.0056  0.0000  0.0442  0.0000  0.0162 </r>
        <r>  0.0000  0.0596  0.0026  0.0232  0.0000  0.0000  0.0000  0.0000  0.0000 </r>
        <r>  0.0000  0.0594  0.0026  0.0232  0.0000  0.0000  0.0000  0.0000  0.0000 </r>
        <r>  0.0000  0.0598  0.0022  0.0231  0.0000  0.0000  0.0000  0.0000  0.0000 </r>
        <r>  0.0000  0.0600  0.0022  0.0232  0.0000  0.0000  0.0000  0.0000  0.0000 </r>
       </set>
       <set comment="band 8">
        <r>  0.0579  0.0046  0.0000  0.0102  0.0054  0.0000  0.0447  0.0000  0.0153 </r>
        <r>  0.0577  0.0046  0.0000  0.0102  0.0054  0.0000  0.0445  0.0000  0.0153 </r>
        <r>  0.0000  0.0602  0.0017  0.0234  0.0000  0.0000  0.0000  0.0000  0.0000 </r>
        <r>  0.0000  0.0604  0.0017  0.0235  0.0000  0.0000  0.0000  0.0000  0.0000 </r>
        <r>  0.0000  0.0600  0.0020  0.0235  0.0000  0.0000  0.0000  0.0000  0.0000 </r>
        <r>  0.0000  0.0598  0.0020  0.0235  0.0000  0.0000  0.0000  0.0000  0.0000 </r>
       </set>
       <set comment="band 9">
        <r>  0.0201  0.0093  0.0000  0.0224  0.0164  0.0000  0.0164  0.0000  0.0431 </r>
        <r>  0.0202  0.0094  0.0000  0.0226  0.0164  0.0000  0.0165  0.0000  0.0434 </r>
        <r>  0.0053  0.0151  0.0274  0.0448  0.0000  0.0000  0.0000  0.0000  0.0000 </r>
        <r>  0.0053  0.0151  0.0273  0.0445  0.0000  0.0000  0.0000  0.0000  0.0000 </r>
        <r>  0.0053  0.0144  0.0272  0.0424  0.0000  0.0000  0.0000  0.0000  0.0000 </r>
        <r>  0.0053  0.0145  0.0273  0.0427  0.0000  0.0000  0.0000  0.0000  0.0000 </r>
       </set>
       <set comment="band 10">
        <r>  0.0216  0.0095  0.0000  0.0222  0.0156  0.0000  0.0180  0.0000  0.0415 </r>
        <r>  0.0214  0.0095  0.0000  0.0220  0.0155  0.0000  0.0179  0.0000  0.0413 </r>
        <r>  0.0050  0.0149  0.0254  0.0440  0.0000  0.0000  0.0000  0.0000  0.0000 </r>
        <r>  0.0051  0.0150  0.0256  0.0442  0.0000  0.0000  0.0000  0.0000  0.0000 </r>
        <r>  0.0050  0.0156  0.0255  0.0464  0.0000  0.0000  0.0000  0.0000  0.0000 </r>
        <r>  0.0050  0.0155  0.0254  0.0461  0.0000  0.0000  0.0000  0.0000  0.0000 </r>
       </set>
       <set comment="band 11">
        <r>  0.0000  0.0347  0.0000  0.0116  0.0387  0.0000  0.0082  0.0000  0.0214 </r>
        <r>  0.0000  0.0347  0.0000  0.0116  0.0388  0.0000  0.0082  0.0000  0.0214 </r>
        <r>  0.0106  0.0103  0.0640  0.0195  0.0000  0.0000  0.0000  0.0000  0.0000 </r>
        <r>  0.0106  0.0103  0.0639  0.0195  0.0000  0.0000  0.0000  0.0000  0.0000 </r>
        <r>  0.0103  0.0109  0.0600  0.0170  0.0000  0.0000  0.0000  0.0000  0.0000 </r>
        <r>  0.0103  0.0109  0.0601  0.0170  0.0000  0.0000  0.0000  0.0000  0.0000 </r>
       </set>
       <set comment="band 12">
        <r>  0.0000  0.0350  0.0000  0.0117  0.0384  0.0000  0.0095  0.0000  0.0210 </r>
        <r>  0.0000  0.0350  0.0000  0.0117  0.0383  0.0000  0.0095  0.0000  0.0209 </r>
        <r>  0.0102  0.0108  0.0590  0.0183  0.0000  0.0000  0.0000  0.0000  0.0000 </r>
        <r>  0.0102  0.0108  0.0592  0.0183  0.0000  0.0000  0.0000  0.0000  0.0000 </r>
        <r>  0.0105  0.0104  0.0624  0.0208  0.0000  0.0000  0.0000  0.0000  0.0000 </r>
        <r>  0.0105  0.0104  0.0623  0.0208  0.0000  0.0000  0.0000  0.0000  0.0000 </r>
       </set>
       <set comment="band 13">
        <r>  0.0000  0.0000  0.0478  0.0000  0.0001  0.0265  0.0000  0.0114  0.0001 </r>
        <r>  0.0000  0.0000  0.0478  0.0000  0.0001  0.0265  0.0000  0.0114  0.0001 </r>
        <r>  0.0007  0.0473  0.0102  0.0493  0.0000  0.0000  0.0000  0.0000  0.0000 </r>
        <r>  0.0007  0.0473  0.0102  0.0493  0.0000  0.0000  0.0000  0.0000  0.0000 </r>
        <r>  0.0014  0.0470  0.0146  0.0508  0.0000  0.0000  0.0000  0.0000  0.0000 </r>
        <r>  0.0014  0.0470  0.0146  0.0508  0.0000  0.0000  0.0000  0.0000  0.0000 </r>
       </set>
       <set comment="band 14">
        <r>  0.0000  0.0000  0.0500  0.0000  0.0001  0.0238  0.0000  0.0099  0.0001 </r>
        <r>  0.0000  0.0000  0.0500  0.0000  0.0001  0.0238  0.0000  0.0099  0.0001 </r>
        <r>  0.0012  0.0487  0.0116  0.0526  0.0000  0.0000  0.0000  0.0000  0.0000 </r>
        <r>  0.0012  0.0488  0.0116  0.0527  0.0000  0.0000  0.0000  0.0000  0.0000 </r>
        <r>  0.0007  0.0490  0.0080  0.0512  0.0000  0.0000  0.0000  0.0000  0.0000 </r>
        <r>  0.0007  0.0490  0.0080  0.0512  0.0000  0.0000  0.0000  0.0000  0.0000 </r>
       </set>
       <set comment="band 15">
        <r>  0.0000  0.0000  0.0093  0.0000  0.0000  0.0588  0.0000  0.0577  0.0000 </r>
        <r>  0.0000  0.0000  0.0093  0.0000  0.0000  0.0589  0.0000  0.0578  0.0000 </r>
        <r>  0.0087  0.0060  0.0939  0.0073  0.0000  0.0000  0.0000  0.0000  0.0000 </r>
        <r>  0.0087  0.0060  0.0937  0.0073  0.0000  0.0000  0.0000  0.0000  0.0000 </r>
        <r>  0.0087  0.0065  0.0938  0.0079  0.0000  0.0000  0.0000  0.0000  0.0000 </r>
        <r>  0.0087  0.0065  0.0940  0.0079  0.0000  0.0000  0.0000  0.0000  0.0000 </r>
       </set>
       <set comment="band 16">
        <r>  0.0000  0.0000  0.0117  0.0000  0.0000  0.0558  0.0000  0.0556  0.0000 </r>
        <r>  0.0000  0.0000  0.0117  0.0000  0.0000  0.0557  0.0000  0.0555  0.0000 </r>
        <r>  0.0084  0.0083  0.0911  0.0099  0.0000  0.0000  0.0000  0.0000  0.0000 </r>
        <r>  0.0084  0.0083  0.0912  0.0099  0.0000  0.0000  0.0000  0.0000  0.0000 </r>
        <r>  0.0084  0.0078  0.0913  0.0092  0.0000  0.0000  0.0000  0.0000  0.0000 </r>
        <r>  0.0084  0.0078  0.0911  0.0092  0.0000  0.0000  0.0000  0.0000  0.0000 </r>
       </set>
       <set comment="band 17">
        <r>  0.0021  0.0013  0.0000  0.0006  0.1604  0.0000  0.0236  0.0000  0.1615 </r>
        <r>  0.0021  0.0013  0.0000  0.0006  0.1611  0.0000  0.0238  0.0000  0.1622 </r>
        <r>  0.0000  0.0131  0.0000  0.0182  0.0000  0.0000  0.0000  0.0000  0.0000 </r>
        <r>  0.0000  0.0130  0.0000  0.0181  0.0000  0.0000  0.0000  0.0000  0.0000 </r>
        <r>  0.0000  0.0130  0.0000  0.0180  0.0000  0.0000  0.0000  0.0000  0.0000 </r>
        <r>  0.0000  0.0131  0.0000  0.0181  0.0000  0.0000  0.0000  0.0000  0.0000 </r>
       </set>
       <set comment="band 18">
        <r>  0.0021  0.0012  0.0000  0.0006  0.1617  0.0000  0.0240  0.0000  0.1618 </r>
        <r>  0.0021  0.0012  0.0000  0.0005  0.1609  0.0000  0.0239  0.0000  0.1611 </r>
        <r>  0.0000  0.0132  0.0000  0.0183  0.0000  0.0000  0.0000  0.0000  0.0000 </r>
        <r>  0.0000  0.0132  0.0000  0.0184  0.0000  0.0000  0.0000  0.0000  0.0000 </r>
        <r>  0.0000  0.0132  0.0000  0.0184  0.0000  0.0000  0.0000  0.0000  0.0000 </r>
        <r>  0.0000  0.0132  0.0000  0.0183  0.0000  0.0000  0.0000  0.0000  0.0000 </r>
       </set>
       <set comment="band 19">
        <r>  0.0201  0.0014  0.0000  0.0005  0.0122  0.0000  0.3529  0.0000  0.0150 </r>
        <r>  0.0203  0.0014  0.0000  0.0005  0.0123  0.0000  0.3552  0.0000  0.0151 </r>
        <r>  0.0000  0.0103  0.0017  0.0068  0.0000  0.0000  0.0000  0.0000  0.0000 </r>
        <r>  0.0000  0.0102  0.0017  0.0067  0.0000  0.0000  0.0000  0.0000  0.0000 </r>
        <r>  0.0000  0.0103  0.0018  0.0069  0.0000  0.0000  0.0000  0.0000  0.0000 </r>
        <r>  0.0000  0.0104  0.0018  0.0069  0.0000  0.0000  0.0000  0.0000  0.0000 </r>
       </set>
       <set comment="band 20">
        <r>  0.0207  0.0014  0.0000  0.0005  0.0131  0.0000  0.3548  0.0000  0.0149 </r>
        <r>  0.0206  0.0014  0.0000  0.0005  0.0130  0.0000  0.3524  0.0000  0.0148 </r>
        <r>  0.0000  0.0104  0.0018  0.0069  0.0000  0.0000  0.0000  0.0000  0.0000 </r>
        <r>  0.0000  0.0105  0.0018  0.0070  0.0000  0.0000  0.0000  0.0000  0.0000 </r>
        <r>  0.0000  0.0104  0.0017  0.0068  0.0000  0.0000  0.0000  0.0000  0.0000 </r>
        <r>  0.0000  0.0104  0.0017  0.0068  0.0000  0.0000  0.0000  0.0000  0.0000 </r>
       </set>
       <set comment="band 21">
        <r>  0.0000  0.0001  0.0003  0.0000  0.0008  0.0977  0.0000  0.1515  0.0005 </r>
        <r>  0.0000  0.0001  0.0003  0.0000  0.0008  0.0979  0.0000  0.1515  0.0005 </r>
        <r>  0.0006  0.0142  0.0006  0.0191  0.0000  0.0000  0.0000  0.0000  0.0000 </r>
        <r>  0.0006  0.0142  0.0006  0.0191  0.0000  0.0000  0.0000  0.0000  0.0000 </r>
        <r>  0.0003  0.0147  0.0000  0.0194  0.0000  0.0000  0.0000  0.0000  0.0000 </r>
        <r>  0.0003  0.0147  0.0000  0.0194  0.0000  0.0000  0.0000  0.0000  0.0000 </r>
       </set>
       <set comment="band 22">
        <r>  0.0000  0.0001  0.0003  0.0000  0.0011  0.1006  0.0000  0.1543  0.0006 </r>
        <r>  0.0000  0.0001  0.0003  0.0000  0.0011  0.1005  0.0000  0.1543  0.0006 </r>
        <r>  0.0003  0.0155  0.0000  0.0203  0.0000  0.0000  0.0000  0.0000  0.0000 </r>
        <r>  0.0003  0.0155  0.0000  0.0203  0.0000  0.0000  0.0000  0.0000  0.0000 </r>
        <r>  0.0006  0.0153  0.0008  0.0203  0.0000  0.0000  0.0000  0.0000  0.0000 </r>
        <r>  0.0006  0.0153  0.0008  0.0202  0.0000  0.0000  0.0000  0.0000  0.0000 </r>
       </set>
       <set comment="band 23">
        <r>  0.0028  0.0099  0.0000  0.0050  0.1934  0.0006  0.0021  0.0006  0.1431 </r>
        <r>  0.0028  0.0099  0.0000  0.0051  0.1936  0.0006  0.0021  0.0006  0.1432 </r>
        <r>  0.0024  0.0001  0.0308  0.0001  0.0000  0.0000  0.0000  0.0000  0.0000 </r>
        <r>  0.0024  0.0001  0.0308  0.0001  0.0000  0.0000  0.0000  0.0000  0.0000 </r>
        <r>  0.0022  0.0007  0.0310  0.0008  0.0000  0.0000  0.0000  0.0000  0.0000 </r>
        <r>  0.0022  0.0007  0.0310  0.0008  0.0000  0.0000  0.0000  0.0000  0.0000 </r>
       </set>
       <set comment="band 24">
        <r>  0.0017  0.0103  0.0000  0.0055  0.1928  0.0007  0.0019  0.0008  0.1460 </r>
        <r>  0.0017  0.0103  0.0000  0.0055  0.1926  0.0007  0.0019  0.0008  0.1459 </r>
        <r>  0.0022  0.0009  0.0323  0.0010  0.0000  0.0000  0.0000  0.0000  0.0000 </r>
        <r>  0.0022  0.0009  0.0325  0.0010  0.0000  0.0000  0.0000  0.0000  0.0000 </r>
        <r>  0.0022  0.0001  0.0320  0.0001  0.0000  0.0000  0.0000  0.0000  0.0000 </r>
        <r>  0.0022  0.0001  0.0322  0.0001  0.0000  0.0000  0.0000  0.0000  0.0000 </r>
       </set>
      </set>
     </set>
    </set>
   </array>
  </projected>
 </calculation>
 <structure name="finalpos" >
  <crystal>
   <varray name="basis" >
    <v>       3.18339712       0.00000000       0.00000000 </v>
    <v>      -1.59169856       2.75690277       0.00000000 </v>
    <v>       0.00000000       0.00000000      24.86458601 </v>
   </varray>
   <i name="volume">    218.21947242 </i>
   <varray name="rec_basis" >
    <v>       0.31412983       0.18136294       0.00000000 </v>
    <v>       0.00000000       0.36272589       0.00000000 </v>
    <v>       0.00000000       0.00000000       0.04021784 </v>
   </varray>
  </crystal>
  <varray name="positions" >
   <v>       0.33333300       0.66666700       0.14951355 </v>
   <v>       0.66666700       0.33333300       0.85048645 </v>
   <v>       0.33333300       0.66666700       0.91337155 </v>
   <v>       0.66666700       0.33333300       0.08662845 </v>
   <v>       0.66666600       0.33333300       0.21239664 </v>
   <v>       0.33333400       0.66666700       0.78760336 </v>
  </varray>
 </structure>
</modeling>
