unknown system                          
           1
     3.183397    0.000000    0.000000
    -1.591699    2.756903    0.000000
     0.000000    0.000000   24.864586
   Mo   S 
   2   4
Direct configuration=     1
   0.33333300  0.66666700  0.14951355
   0.66666700  0.33333300  0.85048645
   0.33333300  0.66666700  0.91337155
   0.66666700  0.33333300  0.08662845
   0.66666600  0.33333300  0.21239664
   0.33333400  0.66666700  0.78760336
