    3    3    1    1
  0.7897505E+02  0.3190316E-09  0.3190316E-09  0.2687900E-08  0.5000000E-15
  1.000000000000000E-004
  CAR 
 unknown system                          
     18     10     14
 
  0.0000000E+00  0.0000000E+00  0.0000000E+00  0.1562500E-01
    1      -17.463508   1.000000
    2      -16.255448   1.000000
    3       -8.984409   1.000000
    4       -6.023633   1.000000
    5       -6.023627   1.000000
    6       -5.162311   1.000000
    7       -4.918097   1.000000
    8       -4.918065   1.000000
    9       -3.441916   1.000000
   10       -0.670417   0.000000
   11       -0.670387   0.000000
   12       -0.446669   0.000000
   13       -0.446655   0.000000
   14        1.992376   0.000000
 
  0.1250000E+00  0.0000000E+00  0.0000000E+00  0.9375000E-01
    1      -17.249359   1.000000
    2      -16.153061   1.000000
    3       -8.739879   1.000000
    4       -6.487053   1.000000
    5       -5.970389   1.000000
    6       -5.789213   1.000000
    7       -5.253826   1.000000
    8       -4.484832   1.000000
    9       -3.580339   1.000000
   10       -0.950432   0.000000
   11       -0.884630   0.000000
   12       -0.683258   0.000000
   13       -0.315607   0.000000
   14        2.362676   0.000000
 
  0.2500000E+00  0.0000000E+00  0.0000000E+00  0.9375000E-01
    1      -16.680622   1.000000
    2      -15.884300   1.000000
    3       -8.373789   1.000000
    4       -7.213613   1.000000
    5       -6.951236   1.000000
    6       -5.888854   1.000000
    7       -5.202135   1.000000
    8       -4.736418   1.000000
    9       -4.148295   1.000000
   10       -1.274538   0.000000
   11       -1.097982   0.000000
   12       -0.555869   0.000000
   13        0.301366   0.000000
   14        3.181778   0.000000
 
  0.3750000E+00  0.0000000E+00  0.0000000E+00  0.9375000E-01
    1      -16.005509   1.000000
    2      -15.575872   1.000000
    3       -8.811042   1.000000
    4       -7.818609   1.000000
    5       -7.346453   1.000000
    6       -6.386190   1.000000
    7       -5.145721   1.000000
    8       -4.611631   1.000000
    9       -4.343494   1.000000
   10       -1.279415   0.000000
   11       -1.000540   0.000000
   12        0.162651   0.000000
   13        0.694695   0.000000
   14        3.701503   0.000000
 
  0.5000000E+00  0.0000000E+00  0.0000000E+00  0.4687500E-01
    1      -15.677254   1.000000
    2      -15.432549   1.000000
    3       -9.143694   1.000000
    4       -8.183532   1.000000
    5       -7.472756   1.000000
    6       -6.566769   1.000000
    7       -5.284575   1.000000
    8       -4.384554   1.000000
    9       -4.062714   1.000000
   10       -1.257094   0.000000
   11       -0.741148   0.000000
   12        0.461239   0.000000
   13        0.810121   0.000000
   14        2.740530   0.000000
 
  0.1250000E+00  0.1250000E+00  0.0000000E+00  0.9375000E-01
    1      -16.856549   1.000000
    2      -15.966052   1.000000
    3       -8.392615   1.000000
    4       -7.051048   1.000000
    5       -6.532549   1.000000
    6       -6.067669   1.000000
    7       -5.449746   1.000000
    8       -4.350361   1.000000
    9       -3.952229   1.000000
   10       -1.349671   0.000000
   11       -0.971496   0.000000
   12       -0.959692   0.000000
   13        0.279245   0.000000
   14        2.965459   0.000000
 
  0.2500000E+00  0.1250000E+00  0.0000000E+00  0.1875000E+00
    1      -16.222961   1.000000
    2      -15.667517   1.000000
    3       -8.455369   1.000000
    4       -7.477771   1.000000
    5       -7.214630   1.000000
    6       -6.571972   1.000000
    7       -5.350307   1.000000
    8       -4.712575   1.000000
    9       -4.235862   1.000000
   10       -1.433011   0.000000
   11       -0.984532   0.000000
   12       -0.489718   0.000000
   13        0.787083   0.000000
   14        3.924752   0.000000
 
  0.3750000E+00  0.1250000E+00  0.0000000E+00  0.1875000E+00
    1      -15.692487   1.000000
    2      -15.423600   1.000000
    3       -8.856340   1.000000
    4       -8.240802   1.000000
    5       -7.345015   1.000000
    6       -6.588781   1.000000
    7       -5.335137   1.000000
    8       -5.194397   1.000000
    9       -3.908992   1.000000
   10       -1.238248   0.000000
   11       -0.727934   0.000000
   12        0.131961   0.000000
   13        0.820790   0.000000
   14        3.267367   0.000000
 
  0.2500000E+00  0.2500000E+00  0.0000000E+00  0.9375000E-01
    1      -15.707449   1.000000
    2      -15.414603   1.000000
    3       -8.495960   1.000000
    4       -8.291598   1.000000
    5       -7.017849   1.000000
    6       -6.637087   1.000000
    7       -6.317953   1.000000
    8       -5.060947   1.000000
    9       -3.937822   1.000000
   10       -1.289257   0.000000
   11       -0.678222   0.000000
   12       -0.366579   0.000000
   13        1.108844   0.000000
   14        4.099729   0.000000
 
  0.3750000E+00  0.2500000E+00  0.0000000E+00  0.9375000E-01
    1      -15.472562   1.000000
    2      -15.295446   1.000000
    3       -8.676025   1.000000
    4       -8.326940   1.000000
    5       -7.302200   1.000000
    6       -6.639604   1.000000
    7       -6.409443   1.000000
    8       -5.447235   1.000000
    9       -3.570391   1.000000
   10       -1.614903   0.000000
   11       -0.308216   0.000000
   12       -0.127621   0.000000
   13        1.254150   0.000000
   14        3.510308   0.000000
