 vasp.5.4.4.18Apr17-6-g9f103f2a35 (build Jun 30 2017 11:15:00) complex          
  
 executed on    STALLO_VASP_5.4.4 date 2019.11.08  12:01:04
 running on    4 total cores
 distrk:  each k-point on    4 cores,    1 groups
 distr:  one band on NCORES_PER_BAND=   2 cores,    2 groups


--------------------------------------------------------------------------------------------------------


 INCAR:
 POTCAR:   PAW_PBE Mo 08Apr2002                   
 POTCAR:    PAW_PBE S 17Jan2003                   
 POTCAR:   PAW_PBE Mo 08Apr2002                   
   VRHFIN =Mo: 4p5s4d                                                           
   LEXCH  = PE                                                                  
   EATOM  =   217.5180 eV,   15.9871 Ry                                         
                                                                                
   TITEL  = PAW_PBE Mo 08Apr2002                                                
   LULTRA =        F    use ultrasoft PP ?                                      
   IUNSCR =        1    unscreen: 0-lin 1-nonlin 2-no                           
   RPACOR =    2.200    partial core radius                                     
   POMASS =   95.940; ZVAL   =    6.000    mass and valenz                      
   RCORE  =    2.750    outmost cutoff radius                                   
   RWIGS  =    2.750; RWIGS  =    1.455    wigner-seitz radius (au A)           
   ENMAX  =  224.584; ENMIN  =  168.438 eV                                      
   RCLOC  =    2.111    cutoff for local pot                                    
   LCOR   =        T    correct aug charges                                     
   LPAW   =        T    paw PP                                                  
   EAUG   =  345.278                                                            
   DEXC   =    -.088                                                            
   RMAX   =    3.077    core radius for proj-oper                               
   RAUG   =    1.300    factor for augmentation sphere                          
   RDEP   =    2.815    radius for radial grids                                 
   QCUT   =   -4.063; QGAM   =    8.126    optimization parameters              
                                                                                
   Description                                                                  
     l     E      TYP  RCUT    TYP  RCUT                                        
     2   .000     23  2.500                                                     
     2   .000     23  2.500                                                     
     0   .000     23  2.600                                                     
     0  1.000     23  2.600                                                     
     1   .400     23  2.750                                                     
     1  2.000     23  2.750                                                     
     3   .000      7   .000                                                     
  local pseudopotential read in
  partial core-charges read in
  atomic valenz-charges read in
  non local Contribution for L=           2  read in
    real space projection operators read in
  non local Contribution for L=           2  read in
    real space projection operators read in
  non local Contribution for L=           0  read in
    real space projection operators read in
  non local Contribution for L=           0  read in
    real space projection operators read in
  non local Contribution for L=           1  read in
    real space projection operators read in
  non local Contribution for L=           1  read in
    real space projection operators read in
    PAW grid and wavefunctions read in
 
   number of l-projection  operators is LMAX  =           6
   number of lm-projection operators is LMMAX =          18
 
 POTCAR:    PAW_PBE S 17Jan2003                   
   VRHFIN =S : s2p4                                                             
   LEXCH  = PE                                                                  
   EATOM  =   276.8230 eV,   20.3459 Ry                                         
                                                                                
   TITEL  = PAW_PBE S 17Jan2003                                                 
   LULTRA =        F    use ultrasoft PP ?                                      
   IUNSCR =        1    unscreen: 0-lin 1-nonlin 2-no                           
   RPACOR =    1.500    partial core radius                                     
   POMASS =   32.066; ZVAL   =    6.000    mass and valenz                      
   RCORE  =    1.900    outmost cutoff radius                                   
   RWIGS  =    2.200; RWIGS  =    1.164    wigner-seitz radius (au A)           
   ENMAX  =  280.000; ENMIN  =  194.016 eV                                      
   ICORE  =        2    local potential                                         
   LCOR   =        T    correct aug charges                                     
   LPAW   =        T    paw PP                                                  
   EAUG   =  335.092                                                            
   DEXC   =     .000                                                            
   RMAX   =    2.867    core radius for proj-oper                               
   RAUG   =    1.300    factor for augmentation sphere                          
   RDEP   =    1.954    radius for radial grids                                 
   QCUT   =   -4.360; QGAM   =    8.721    optimization parameters              
                                                                                
   Description                                                                  
     l     E      TYP  RCUT    TYP  RCUT                                        
     0   .000     23  1.900                                                     
     0   .000     23  1.900                                                     
     1   .000     23  1.900                                                     
     1   .000     23  1.900                                                     
     2   .000     23  1.900                                                     
  local pseudopotential read in
  partial core-charges read in
  atomic valenz-charges read in
  non local Contribution for L=           0  read in
    real space projection operators read in
  non local Contribution for L=           0  read in
    real space projection operators read in
  non local Contribution for L=           1  read in
    real space projection operators read in
  non local Contribution for L=           1  read in
    real space projection operators read in
    PAW grid and wavefunctions read in
 
   number of l-projection  operators is LMAX  =           4
   number of lm-projection operators is LMMAX =           8
 
 WARNING: PSMAXN for non-local potential too small
          PSMAXN should be >   15.7905836300310       NTYP=           1
 PAW_PBE Mo 08Apr2002                   :
 energy of atom  1       EATOM= -217.5180
 kinetic energy error for atom=    0.0001 (will be added to EATOM!!)
  PAW_PBE S 17Jan2003                   :
 energy of atom  2       EATOM= -276.8230
 kinetic energy error for atom=    0.0003 (will be added to EATOM!!)
 
 
 POSCAR: MoS2_mp-2815_computed                   
  positions in cartesian coordinates
  velocities in cartesian coordinates
  No initial velocities read in
 exchange correlation table for  LEXCH =        8
   RHO(1)=    0.500       N(1)  =     2000
   RHO(2)=  100.500       N(2)  =     4000
 


--------------------------------------------------------------------------------------------------------


 ion  position               nearest neighbor table
   1  0.333  0.667  0.138-   3 2.42   2 2.42   2 2.42   3 2.42   3 2.42   2 2.42
   2  0.667  0.333  0.080-   1 2.42   1 2.42   1 2.42
   3  0.667  0.333  0.197-   1 2.42   1 2.42   1 2.42
 
  LATTYP: Found a hexagonal cell.
 ALAT       =     3.1903157300
 C/A-ratio  =     8.4251862746
  
  Lattice vectors:
  
 A1 = (   3.1903157300,   0.0000000000,   0.0000000000)
 A2 = (  -1.5951578650,   2.7628944683,   0.0000000000)
 A3 = (   0.0000000000,   0.0000000000,  26.8790043000)


Analysis of symmetry for initial positions (statically):
=====================================================================
 Subroutine PRICEL returns:
 Original cell was already a primitive cell.
 

 Routine SETGRP: Setting up the symmetry group for a 
 hexagonal supercell.


 Subroutine GETGRP returns: Found 12 space group operations
 (whereof  6 operations were pure point group operations)
 out of a pool of 24 trial point group operations.


The static configuration has the point symmetry C_3v.
 The point group associated with its full space group is D_3h.


Analysis of symmetry for dynamics (positions and initial velocities):
=====================================================================
 Subroutine PRICEL returns:
 Original cell was already a primitive cell.
 

 Routine SETGRP: Setting up the symmetry group for a 
 hexagonal supercell.


 Subroutine GETGRP returns: Found 12 space group operations
 (whereof  6 operations were pure point group operations)
 out of a pool of 24 trial point group operations.


The dynamic configuration has the point symmetry C_3v.
 The point group associated with its full space group is D_3h.


 Subroutine INISYM returns: Found 12 space group operations
 (whereof  6 operations are pure point group operations),
 and found     1 'primitive' translations

 
 
 KPOINTS: k-density: 4.0                          

Automatic generation of k-mesh.
Space group operators:
 irot       det(A)        alpha          n_x          n_y          n_z        tau_x        tau_y        tau_z
    1     1.000000     0.000001     1.000000     0.000000     0.000000     0.000000     0.000000     0.000000
    2     1.000000   120.000000     0.000000     0.000000    -1.000000     0.000000     0.000000     0.000000
    3     1.000000   120.000000     0.000000     0.000000     1.000000     0.000000     0.000000     0.000000
    4    -1.000000   179.999999     1.000000    -0.000000     0.000000     0.000000     0.000000     0.000000
    5    -1.000000   180.000000     0.500000    -0.866025     0.000000     0.000000     0.000000     0.000000
    6    -1.000000   180.000000    -0.500000    -0.866025     0.000000     0.000000     0.000000     0.000000
    7    -1.000000    60.000000     0.000000     0.000000    -1.000000    -0.000000     0.000000     0.276777
    8    -1.000000   180.000000     0.000000     0.000000     1.000000     0.000000     0.000000     0.276777
    9    -1.000000    60.000000     0.000000     0.000000     1.000000     0.000000     0.000001     0.276777
   10     1.000000   180.000000     0.866025    -0.500000     0.000000     0.000000     0.000000     0.276777
   11     1.000000   180.000000     0.000000     1.000000     0.000000     0.000000     0.000000     0.276777
   12     1.000000   179.999999     0.866025     0.500000     0.000000    -0.000000     0.000001     0.276777
 
 Subroutine IBZKPT returns following result:
 ===========================================
 
 Found     10 irreducible k-points:
 
 Following reciprocal coordinates:
            Coordinates               Weight
  0.000000  0.000000  0.000000      1.000000
  0.125000  0.000000  0.000000      6.000000
  0.250000  0.000000  0.000000      6.000000
  0.375000  0.000000  0.000000      6.000000
  0.500000  0.000000  0.000000      3.000000
  0.125000  0.125000  0.000000      6.000000
  0.250000  0.125000  0.000000     12.000000
  0.375000  0.125000  0.000000     12.000000
  0.250000  0.250000  0.000000      6.000000
  0.375000  0.250000  0.000000      6.000000
 
 Following cartesian coordinates:
            Coordinates               Weight
  0.000000  0.000000  0.000000      1.000000
  0.039181  0.022621  0.000000      6.000000
  0.078362  0.045242  0.000000      6.000000
  0.117543  0.067864  0.000000      6.000000
  0.156724  0.090485  0.000000      3.000000
  0.039181  0.067864  0.000000      6.000000
  0.078362  0.090485  0.000000     12.000000
  0.117543  0.113106  0.000000     12.000000
  0.078362  0.135727  0.000000      6.000000
  0.117543  0.158348  0.000000      6.000000
 
 TETIRR: Found     36 inequivalent tetrahedra from      384


--------------------------------------------------------------------------------------------------------




 Dimension of arrays:
   k-points           NKPTS =     10   k-points in BZ     NKDIM =     10   number of bands    NBANDS=     14
   number of dos      NEDOS =    301   number of ions     NIONS =      3
   non local maximal  LDIM  =      6   non local SUM 2l+1 LMDIM =     18
   total plane-waves  NPLWV = 120960
   max r-space proj   IRMAX =      1   max aug-charges    IRDMAX=  32975
   dimension x,y,z NGX =    24 NGY =   24 NGZ =  210
   dimension x,y,z NGXF=    48 NGYF=   48 NGZF=  420
   support grid    NGXF=    48 NGYF=   48 NGZF=  420
   ions per type =               1   2
   NGX,Y,Z   is equivalent  to a cutoff of  12.51, 12.51, 12.99 a.u.
   NGXF,Y,Z  is equivalent  to a cutoff of  25.01, 25.01, 25.98 a.u.

 SYSTEM =  unknown system                          
 POSCAR =  MoS2_mp-2815_computed                   

 Startparameter for this run:
   NWRITE =      2    write-flag & timer
   PREC   = normal    normal or accurate (medium, high low for compatibility)
   ISTART =      0    job   : 0-new  1-cont  2-samecut
   ICHARG =      2    charge: 1-file 2-atom 10-const
   ISPIN  =      1    spin polarized calculation?
   LNONCOLLINEAR =      F non collinear calculations
   LSORBIT =      F    spin-orbit coupling
   INIWAV =      1    electr: 0-lowe 1-rand  2-diag
   LASPH  =      F    aspherical Exc in radial PAW
   METAGGA=      F    non-selfconsistent MetaGGA calc.

 Electronic Relaxation 1
   ENCUT  =  950.0 eV  69.82 Ry    8.36 a.u.   8.02  8.02 67.55*2*pi/ulx,y,z
   ENINI  =  950.0     initial cutoff
   ENAUG  =  345.3 eV  augmentation charge cutoff
   NELM   =     60;   NELMIN=  4; NELMDL= -5     # of ELM steps 
   EDIFF  = 0.1E-04   stopping-criterion for ELM
   LREAL  =      F    real-space projection
   NLSPLINE    = F    spline interpolate recip. space projectors
   LCOMPAT=      F    compatible to vasp.4.4
   GGA_COMPAT  = T    GGA compatible to vasp.4.4-vasp.4.6
   LMAXPAW     = -100 max onsite density
   LMAXMIX     =    2 max onsite mixed and CHGCAR
   VOSKOWN=      0    Vosko Wilk Nusair interpolation
   ROPT   =    0.00000   0.00000
 Ionic relaxation
   EDIFFG = 0.1E-03   stopping-criterion for IOM
   NSW    =      0    number of steps for IOM
   NBLOCK =      1;   KBLOCK =      1    inner block; outer block 
   IBRION =     -1    ionic relax: 0-MD 1-quasi-New 2-CG
   NFREE  =      0    steps in history (QN), initial steepest desc. (CG)
   ISIF   =      2    stress and relaxation
   IWAVPR =     10    prediction:  0-non 1-charg 2-wave 3-comb
   ISYM   =      2    0-nonsym 1-usesym 2-fastsym
   LCORR  =      T    Harris-Foulkes like correction to forces

   POTIM  = 0.5000    time-step for ionic-motion
   TEIN   =    0.0    initial temperature
   TEBEG  =    0.0;   TEEND  =   0.0 temperature during run
   SMASS  =  -3.00    Nose mass-parameter (am)
   estimated Nose-frequenzy (Omega)   =  0.10E-29 period in steps =****** mass=  -0.233E-27a.u.
   SCALEE = 1.0000    scale energy and forces
   NPACO  =    256;   APACO  = 16.0  distance and # of slots for P.C.
   PSTRESS=    0.0 pullay stress

  Mass of Ions in am
   POMASS =  95.94 32.07
  Ionic Valenz
   ZVAL   =   6.00  6.00
  Atomic Wigner-Seitz radii
   RWIGS  =  -1.00 -1.00
  virtual crystal weights 
   VCA    =   1.00  1.00
   NELECT =      18.0000    total number of electrons
   NUPDOWN=      -1.0000    fix difference up-down

 DOS related values:
   EMIN   =  10.00;   EMAX   =-10.00  energy-range for DOS
   EFERMI =   0.00
   ISMEAR =    -5;   SIGMA  =   0.20  broadening in eV -4-tet -1-fermi 0-gaus

 Electronic relaxation 2 (details)
   IALGO  =     68    algorithm
   LDIAG  =      T    sub-space diagonalisation (order eigenvalues)
   LSUBROT=      F    optimize rotation matrix (better conditioning)
   TURBO    =      0    0=normal 1=particle mesh
   IRESTART =      0    0=no restart 2=restart with 2 vectors
   NREBOOT  =      0    no. of reboots
   NMIN     =      0    reboot dimension
   EREF     =   0.00    reference energy to select bands
   IMIX   =      4    mixing-type and parameters
     AMIX     =   0.40;   BMIX     =  1.00
     AMIX_MAG =   1.60;   BMIX_MAG =  1.00
     AMIN     =   0.10
     WC   =   100.;   INIMIX=   1;  MIXPRE=   1;  MAXMIX= -45

 Intra band minimization:
   WEIMIN = 0.0000     energy-eigenvalue tresh-hold
   EBREAK =  0.18E-06  absolut break condition
   DEPER  =   0.30     relativ break condition  

   TIME   =   0.40     timestep for ELM

  volume/ion in A,a.u.               =      78.98       532.95
  Fermi-wavevector in a.u.,A,eV,Ry     =   0.693365  1.310270  6.541070  0.480755
  Thomas-Fermi vector in A             =   1.775558
 
 Write flags
   LWAVE        =      F    write WAVECAR
   LDOWNSAMPLE  =      F    k-point downsampling of WAVECAR
   LCHARG       =      T    write CHGCAR
   LVTOT        =      F    write LOCPOT, total local potential
   LVHAR        =      F    write LOCPOT, Hartree potential only
   LELF         =      F    write electronic localiz. function (ELF)
   LORBIT       =      0    0 simple, 1 ext, 2 COOP (PROOUT), +10 PAW based schemes


 Dipole corrections
   LMONO  =      F    monopole corrections only (constant potential shift)
   LDIPOL =      F    correct potential (dipole corrections)
   IDIPOL =      0    1-x, 2-y, 3-z, 4-all directions 
   EPSILON=  1.0000000 bulk dielectric constant

 Exchange correlation treatment:
   GGA     =    --    GGA type
   LEXCH   =     8    internal setting for exchange type
   VOSKOWN=      0    Vosko Wilk Nusair interpolation
   LHFCALC =     F    Hartree Fock is set to
   LHFONE  =     F    Hartree Fock one center treatment
   AEXX    =    0.0000 exact exchange contribution

 Linear response parameters
   LEPSILON=     F    determine dielectric tensor
   LRPA    =     F    only Hartree local field effects (RPA)
   LNABLA  =     F    use nabla operator in PAW spheres
   LVEL    =     F    velocity operator in full k-point grid
   LINTERFAST=   F  fast interpolation
   KINTER  =     0    interpolate to denser k-point grid
   CSHIFT  =0.1000    complex shift for real part using Kramers Kronig
   OMEGAMAX=  -1.0    maximum frequency
   DEG_THRESHOLD= 0.2000000E-02 threshold for treating states as degnerate
   RTIME   =   -0.100 relaxation time in fs
  (WPLASMAI=    0.000 imaginary part of plasma frequency in eV, 0.658/RTIME)
   DFIELD  = 0.0000000 0.0000000 0.0000000 field for delta impulse in time
 
 Orbital magnetization related:
   ORBITALMAG=     F  switch on orbital magnetization
   LCHIMAG   =     F  perturbation theory with respect to B field
   DQ        =  0.001000  dq finite difference perturbation B field
   LLRAUG    =     F  two centre corrections for induced B field



--------------------------------------------------------------------------------------------------------


 Static calculation
 charge density and potential will be updated during run
 non-spin polarized calculation
 RMM-DIIS sequential band-by-band and
  variant of blocked Davidson during initial phase
 perform sub-space diagonalisation
    before iterative eigenvector-optimisation
 modified Broyden-mixing scheme, WC =      100.0
 initial mixing is a Kerker type mixing with AMIX =  0.4000 and BMIX =      1.0000
 Hartree-type preconditioning will be used
 using additional bands            5
 reciprocal scheme for non local part
 use partial core corrections
 calculate Harris-corrections to forces 
   (improved forces if not selfconsistent)
 use gradient corrections 
 use of overlap-Matrix (Vanderbilt PP)
 Fermi weights with tetrahedron method with Bloechl corrections


--------------------------------------------------------------------------------------------------------


  energy-cutoff  :      950.00
  volume of cell :      236.93
      direct lattice vectors                 reciprocal lattice vectors
     3.190315730  0.000000000  0.000000000     0.313448600  0.180969634  0.000000000
    -1.595157865  2.762894468  0.000000000     0.000000000  0.361939267  0.000000000
     0.000000000  0.000000000 26.879004300     0.000000000  0.000000000  0.037203759

  length of vectors
     3.190315730  3.190315730 26.879004300     0.361939267  0.361939267  0.037203759


 
 k-points in units of 2pi/SCALE and weight: k-density: 4.0                          
   0.00000000  0.00000000  0.00000000       0.016
   0.03918108  0.02262120  0.00000000       0.094
   0.07836215  0.04524241  0.00000000       0.094
   0.11754323  0.06786361  0.00000000       0.094
   0.15672430  0.09048482  0.00000000       0.047
   0.03918108  0.06786361  0.00000000       0.094
   0.07836215  0.09048482  0.00000000       0.188
   0.11754323  0.11310602  0.00000000       0.188
   0.07836215  0.13572723  0.00000000       0.094
   0.11754323  0.15834843  0.00000000       0.094
 
 k-points in reciprocal lattice and weights: k-density: 4.0                          
   0.00000000  0.00000000  0.00000000       0.016
   0.12500000  0.00000000  0.00000000       0.094
   0.25000000  0.00000000  0.00000000       0.094
   0.37500000  0.00000000  0.00000000       0.094
   0.50000000  0.00000000  0.00000000       0.047
   0.12500000  0.12500000  0.00000000       0.094
   0.25000000  0.12500000  0.00000000       0.188
   0.37500000  0.12500000  0.00000000       0.188
   0.25000000  0.25000000  0.00000000       0.094
   0.37500000  0.25000000  0.00000000       0.094
 
 position of ions in fractional coordinates (direct lattice) 
   0.33333300  0.66666700  0.13838872
   0.66666700  0.33333300  0.08016914
   0.66666600  0.33333300  0.19660830
 
 position of ions in cartesian coordinates  (Angst):
  -0.00000160  1.84193057  3.71975108
   1.59515946  0.92096390  2.15486668
   1.59515627  0.92096390  5.28463547
 


--------------------------------------------------------------------------------------------------------


 k-point  1 :   0.0000 0.0000 0.0000  plane waves:   15531
 k-point  2 :   0.1250 0.0000 0.0000  plane waves:   15644
 k-point  3 :   0.2500 0.0000 0.0000  plane waves:   15742
 k-point  4 :   0.3750 0.0000 0.0000  plane waves:   15754
 k-point  5 :   0.5000 0.0000 0.0000  plane waves:   15762
 k-point  6 :   0.1250 0.1250 0.0000  plane waves:   15722
 k-point  7 :   0.2500 0.1250 0.0000  plane waves:   15756
 k-point  8 :   0.3750 0.1250 0.0000  plane waves:   15777
 k-point  9 :   0.2500 0.2500 0.0000  plane waves:   15786
 k-point 10 :   0.3750 0.2500 0.0000  plane waves:   15798

 maximum and minimum number of plane-waves per node :      7909     7755

 maximum number of plane-waves:     15798
 maximum index in each direction: 
   IXMAX=    8   IYMAX=    8   IZMAX=   67
   IXMIN=   -8   IYMIN=   -8   IZMIN=  -67


 parallel 3D FFT for wavefunctions:
    minimum data exchange during FFTs selected (reduces bandwidth)
 parallel 3D FFT for charge:
    minimum data exchange during FFTs selected (reduces bandwidth)


 total amount of memory used by VASP MPI-rank0    88057. kBytes
=======================================================================

   base      :      30000. kBytes
   nonl-proj :      23131. kBytes
   fftplans  :      10001. kBytes
   grid      :      16017. kBytes
   one-center:         31. kBytes
   wavefun   :       8877. kBytes
 
     INWAV:  cpu time    0.0000: real time    0.0002
 Broyden mixing: mesh for mixing (old mesh)
   NGX = 17   NGY = 17   NGZ =135
  (NGX  = 48   NGY  = 48   NGZ  =420)
  gives a total of  39015 points

 initial charge density was supplied:
 charge density of overlapping atoms calculated
 number of electron      18.0000000 magnetization 
 keeping initial charge density in first step


--------------------------------------------------------------------------------------------------------


 Maximum index for augmentation-charges         7975 (set IRDMAX)


--------------------------------------------------------------------------------------------------------


 First call to EWALD:  gamma=   0.286
 Maximum number of real-space cells 6x 6x 1
 Maximum number of reciprocal cells 2x 2x10

    FEWALD:  cpu time    0.0010: real time    0.0015


--------------------------------------- Iteration      1(   1)  ---------------------------------------


    POTLOK:  cpu time    0.1370: real time    0.6027
    SETDIJ:  cpu time    0.0050: real time    0.0049
     EDDAV:  cpu time    0.6339: real time    0.6375
 BZINTS: Fermi energy:  8.084405; 18.000000 electrons
         Band energy:  22.191132;  BLOECHL correction: -0.140930
       DOS:  cpu time    0.0010: real time    0.0009
    --------------------------------------------
      LOOP:  cpu time    0.7769: real time    1.2460

 eigenvalue-minimisations  :   280
 total energy-change (2. order) : 0.1656463E+03  (-0.7985003E+03)
 number of electron      18.0000000 magnetization 
 augmentation part       18.0000000 magnetization 

 Free energy of the ion-electron system (eV)
  ---------------------------------------------------
  alpha Z        PSCENC =        12.51390764
  Ewald energy   TEWEN  =      4286.25630342
  -Hartree energ DENC   =     -4967.71356795
  -exchange      EXHF   =         0.00000000
  -V(xc)+E(xc)   XCENC  =       -36.31055742
  PAW double counting   =       406.88651198     -329.34073203
  entropy T*S    EENTRO =         0.00000000
  eigenvalues    EBANDS =        22.19113240
  atomic energy  EATOM  =       771.16334779
  Solvation  Ediel_sol  =         0.00000000
  ---------------------------------------------------
  free energy    TOTEN  =       165.64634584 eV

  energy without entropy =      165.64634584  energy(sigma->0) =      165.64634584


--------------------------------------------------------------------------------------------------------




--------------------------------------- Iteration      1(   2)  ---------------------------------------


     EDDAV:  cpu time    1.0178: real time    1.0211
 BZINTS: Fermi energy: -2.063978; 18.000000 electrons
         Band energy:-147.503093;  BLOECHL correction:  0.000000
       DOS:  cpu time    0.0000: real time    0.0002
    --------------------------------------------
      LOOP:  cpu time    1.0178: real time    1.0214

 eigenvalue-minimisations  :   496
 total energy-change (2. order) :-0.1696942E+03  (-0.1622934E+03)
 number of electron      18.0000000 magnetization 
 augmentation part       18.0000000 magnetization 

 Free energy of the ion-electron system (eV)
  ---------------------------------------------------
  alpha Z        PSCENC =        12.51390764
  Ewald energy   TEWEN  =      4286.25630342
  -Hartree energ DENC   =     -4967.71356795
  -exchange      EXHF   =         0.00000000
  -V(xc)+E(xc)   XCENC  =       -36.31055742
  PAW double counting   =       406.88651198     -329.34073203
  entropy T*S    EENTRO =         0.00000000
  eigenvalues    EBANDS =      -147.50309327
  atomic energy  EATOM  =       771.16334779
  Solvation  Ediel_sol  =         0.00000000
  ---------------------------------------------------
  free energy    TOTEN  =        -4.04787983 eV

  energy without entropy =       -4.04787983  energy(sigma->0) =       -4.04787983


--------------------------------------------------------------------------------------------------------




--------------------------------------- Iteration      1(   3)  ---------------------------------------


     EDDAV:  cpu time    0.8999: real time    0.9033
 BZINTS: Fermi energy: -3.311445; 18.000000 electrons
         Band energy:-166.424328;  BLOECHL correction:  0.000000
       DOS:  cpu time    0.0000: real time    0.0002
    --------------------------------------------
      LOOP:  cpu time    0.8999: real time    0.9035

 eigenvalue-minimisations  :   388
 total energy-change (2. order) :-0.1892123E+02  (-0.1865453E+02)
 number of electron      18.0000000 magnetization 
 augmentation part       18.0000000 magnetization 

 Free energy of the ion-electron system (eV)
  ---------------------------------------------------
  alpha Z        PSCENC =        12.51390764
  Ewald energy   TEWEN  =      4286.25630342
  -Hartree energ DENC   =     -4967.71356795
  -exchange      EXHF   =         0.00000000
  -V(xc)+E(xc)   XCENC  =       -36.31055742
  PAW double counting   =       406.88651198     -329.34073203
  entropy T*S    EENTRO =         0.00000000
  eigenvalues    EBANDS =      -166.42432809
  atomic energy  EATOM  =       771.16334779
  Solvation  Ediel_sol  =         0.00000000
  ---------------------------------------------------
  free energy    TOTEN  =       -22.96911465 eV

  energy without entropy =      -22.96911465  energy(sigma->0) =      -22.96911465


--------------------------------------------------------------------------------------------------------




--------------------------------------- Iteration      1(   4)  ---------------------------------------


     EDDAV:  cpu time    0.8299: real time    0.8293
 BZINTS: Fermi energy: -3.369490; 18.000000 electrons
         Band energy:-166.853110;  BLOECHL correction:  0.000000
       DOS:  cpu time    0.0000: real time    0.0002
    --------------------------------------------
      LOOP:  cpu time    0.8299: real time    0.8296

 eigenvalue-minimisations  :   352
 total energy-change (2. order) :-0.4287818E+00  (-0.4270180E+00)
 number of electron      18.0000000 magnetization 
 augmentation part       18.0000000 magnetization 

 Free energy of the ion-electron system (eV)
  ---------------------------------------------------
  alpha Z        PSCENC =        12.51390764
  Ewald energy   TEWEN  =      4286.25630342
  -Hartree energ DENC   =     -4967.71356795
  -exchange      EXHF   =         0.00000000
  -V(xc)+E(xc)   XCENC  =       -36.31055742
  PAW double counting   =       406.88651198     -329.34073203
  entropy T*S    EENTRO =         0.00000000
  eigenvalues    EBANDS =      -166.85310994
  atomic energy  EATOM  =       771.16334779
  Solvation  Ediel_sol  =         0.00000000
  ---------------------------------------------------
  free energy    TOTEN  =       -23.39789650 eV

  energy without entropy =      -23.39789650  energy(sigma->0) =      -23.39789650


--------------------------------------------------------------------------------------------------------




--------------------------------------- Iteration      1(   5)  ---------------------------------------


     EDDAV:  cpu time    0.9039: real time    0.9084
 BZINTS: Fermi energy: -3.312419; 18.000000 electrons
         Band energy:-166.864871;  BLOECHL correction:  0.000000
       DOS:  cpu time    0.0010: real time    0.0003
    CHARGE:  cpu time    0.0650: real time    0.0656
    MIXING:  cpu time    0.0050: real time    0.0041
    --------------------------------------------
      LOOP:  cpu time    0.9749: real time    0.9784

 eigenvalue-minimisations  :   376
 total energy-change (2. order) :-0.1176095E-01  (-0.1175652E-01)
 number of electron      18.0000003 magnetization 
 augmentation part       -0.9446624 magnetization 

 Broyden mixing:
  rms(total) = 0.68877E+00    rms(broyden)= 0.68877E+00
  rms(prec ) = 0.74603E+00
  weight for this iteration     100.00

 Free energy of the ion-electron system (eV)
  ---------------------------------------------------
  alpha Z        PSCENC =        12.51390764
  Ewald energy   TEWEN  =      4286.25630342
  -Hartree energ DENC   =     -4967.71356795
  -exchange      EXHF   =         0.00000000
  -V(xc)+E(xc)   XCENC  =       -36.31055742
  PAW double counting   =       406.88651198     -329.34073203
  entropy T*S    EENTRO =         0.00000000
  eigenvalues    EBANDS =      -166.86487089
  atomic energy  EATOM  =       771.16334779
  Solvation  Ediel_sol  =         0.00000000
  ---------------------------------------------------
  free energy    TOTEN  =       -23.40965744 eV

  energy without entropy =      -23.40965744  energy(sigma->0) =      -23.40965744


--------------------------------------------------------------------------------------------------------




--------------------------------------- Iteration      1(   6)  ---------------------------------------


    POTLOK:  cpu time    0.1420: real time    0.1442
    SETDIJ:  cpu time    0.0060: real time    0.0048
    EDDIAG:  cpu time    0.1480: real time    0.1483
  RMM-DIIS:  cpu time    0.6119: real time    0.6122
    ORTHCH:  cpu time    0.0140: real time    0.0141
 BZINTS: Fermi energy: -4.382251; 18.000000 electrons
         Band energy:-167.362707;  BLOECHL correction:  0.000000
       DOS:  cpu time    0.0000: real time    0.0002
    CHARGE:  cpu time    0.0650: real time    0.0650
    MIXING:  cpu time    0.0040: real time    0.0044
    --------------------------------------------
      LOOP:  cpu time    0.9909: real time    0.9931

 eigenvalue-minimisations  :   296
 total energy-change (2. order) : 0.1160457E+01  (-0.5426351E+00)
 number of electron      18.0000003 magnetization 
 augmentation part       -0.3982990 magnetization 

 Broyden mixing:
  rms(total) = 0.26132E+00    rms(broyden)= 0.26132E+00
  rms(prec ) = 0.30697E+00
  weight for this iteration     100.00

 eigenvalues of (default mixing * dielectric matrix)
  average eigenvalue GAMMA=   0.8340
  0.8340

 Free energy of the ion-electron system (eV)
  ---------------------------------------------------
  alpha Z        PSCENC =        12.51390764
  Ewald energy   TEWEN  =      4286.25630342
  -Hartree energ DENC   =     -4966.05245663
  -exchange      EXHF   =         0.00000000
  -V(xc)+E(xc)   XCENC  =       -35.42328795
  PAW double counting   =       423.88940690     -347.23371397
  entropy T*S    EENTRO =         0.00000000
  eigenvalues    EBANDS =      -167.36270750
  atomic energy  EATOM  =       771.16334779
  Solvation  Ediel_sol  =         0.00000000
  ---------------------------------------------------
  free energy    TOTEN  =       -22.24920029 eV

  energy without entropy =      -22.24920029  energy(sigma->0) =      -22.24920029


--------------------------------------------------------------------------------------------------------




--------------------------------------- Iteration      1(   7)  ---------------------------------------


    POTLOK:  cpu time    0.1320: real time    0.1334
    SETDIJ:  cpu time    0.0050: real time    0.0047
    EDDIAG:  cpu time    0.1460: real time    0.1468
  RMM-DIIS:  cpu time    0.6059: real time    0.6056
    ORTHCH:  cpu time    0.0140: real time    0.0138
 BZINTS: Fermi energy: -3.803304; 18.000000 electrons
         Band energy:-161.217677;  BLOECHL correction:  0.000000
       DOS:  cpu time    0.0000: real time    0.0002
    CHARGE:  cpu time    0.0650: real time    0.0650
    MIXING:  cpu time    0.0050: real time    0.0046
    --------------------------------------------
      LOOP:  cpu time    0.9729: real time    0.9741

 eigenvalue-minimisations  :   290
 total energy-change (2. order) : 0.3849207E+00  (-0.5515200E-01)
 number of electron      18.0000003 magnetization 
 augmentation part       -0.5982018 magnetization 

 Broyden mixing:
  rms(total) = 0.14986E+00    rms(broyden)= 0.14986E+00
  rms(prec ) = 0.15821E+00
  weight for this iteration     100.00

 eigenvalues of (default mixing * dielectric matrix)
  average eigenvalue GAMMA=   1.3617
  0.6662  2.0573

 Free energy of the ion-electron system (eV)
  ---------------------------------------------------
  alpha Z        PSCENC =        12.51390764
  Ewald energy   TEWEN  =      4286.25630342
  -Hartree energ DENC   =     -4971.43770260
  -exchange      EXHF   =         0.00000000
  -V(xc)+E(xc)   XCENC  =       -35.56642904
  PAW double counting   =       441.27076001     -364.84678996
  entropy T*S    EENTRO =         0.00000000
  eigenvalues    EBANDS =      -161.21767689
  atomic energy  EATOM  =       771.16334779
  Solvation  Ediel_sol  =         0.00000000
  ---------------------------------------------------
  free energy    TOTEN  =       -21.86427963 eV

  energy without entropy =      -21.86427963  energy(sigma->0) =      -21.86427963


--------------------------------------------------------------------------------------------------------




--------------------------------------- Iteration      1(   8)  ---------------------------------------


    POTLOK:  cpu time    0.1320: real time    0.1323
    SETDIJ:  cpu time    0.0050: real time    0.0048
    EDDIAG:  cpu time    0.1460: real time    0.1466
  RMM-DIIS:  cpu time    0.6479: real time    0.6476
    ORTHCH:  cpu time    0.0140: real time    0.0141
 BZINTS: Fermi energy: -3.704683; 18.000000 electrons
         Band energy:-157.001261;  BLOECHL correction:  0.000000
       DOS:  cpu time    0.0000: real time    0.0002
    CHARGE:  cpu time    0.0650: real time    0.0647
    MIXING:  cpu time    0.0050: real time    0.0055
    --------------------------------------------
      LOOP:  cpu time    1.0148: real time    1.0158

 eigenvalue-minimisations  :   311
 total energy-change (2. order) : 0.5990929E-01  (-0.2335146E-01)
 number of electron      18.0000003 magnetization 
 augmentation part       -0.5513154 magnetization 

 Broyden mixing:
  rms(total) = 0.35535E-01    rms(broyden)= 0.35535E-01
  rms(prec ) = 0.37885E-01
  weight for this iteration     100.00

 eigenvalues of (default mixing * dielectric matrix)
  average eigenvalue GAMMA=   1.5009
  1.9190  1.9190  0.6648

 Free energy of the ion-electron system (eV)
  ---------------------------------------------------
  alpha Z        PSCENC =        12.51390764
  Ewald energy   TEWEN  =      4286.25630342
  -Hartree energ DENC   =     -4975.34933704
  -exchange      EXHF   =         0.00000000
  -V(xc)+E(xc)   XCENC  =       -35.29506324
  PAW double counting   =       464.75721998     -388.84948783
  entropy T*S    EENTRO =         0.00000000
  eigenvalues    EBANDS =      -157.00126107
  atomic energy  EATOM  =       771.16334779
  Solvation  Ediel_sol  =         0.00000000
  ---------------------------------------------------
  free energy    TOTEN  =       -21.80437034 eV

  energy without entropy =      -21.80437034  energy(sigma->0) =      -21.80437034


--------------------------------------------------------------------------------------------------------




--------------------------------------- Iteration      1(   9)  ---------------------------------------


    POTLOK:  cpu time    0.1310: real time    0.1340
    SETDIJ:  cpu time    0.0060: real time    0.0048
    EDDIAG:  cpu time    0.1460: real time    0.1468
  RMM-DIIS:  cpu time    0.6819: real time    0.6808
    ORTHCH:  cpu time    0.0140: real time    0.0140
 BZINTS: Fermi energy: -3.633780; 18.000000 electrons
         Band energy:-155.679697;  BLOECHL correction:  0.000000
       DOS:  cpu time    0.0000: real time    0.0002
    CHARGE:  cpu time    0.0650: real time    0.0648
    MIXING:  cpu time    0.0050: real time    0.0051
    --------------------------------------------
      LOOP:  cpu time    1.0488: real time    1.0504

 eigenvalue-minimisations  :   332
 total energy-change (2. order) : 0.4840741E-02  (-0.8901130E-03)
 number of electron      18.0000003 magnetization 
 augmentation part       -0.5460518 magnetization 

 Broyden mixing:
  rms(total) = 0.96309E-02    rms(broyden)= 0.96309E-02
  rms(prec ) = 0.11887E-01
  weight for this iteration     100.00

 eigenvalues of (default mixing * dielectric matrix)
  average eigenvalue GAMMA=   1.5081
  0.6673  1.0479  2.4371  1.8800

 Free energy of the ion-electron system (eV)
  ---------------------------------------------------
  alpha Z        PSCENC =        12.51390764
  Ewald energy   TEWEN  =      4286.25630342
  -Hartree energ DENC   =     -4976.64003559
  -exchange      EXHF   =         0.00000000
  -V(xc)+E(xc)   XCENC  =       -35.24079860
  PAW double counting   =       470.14998129     -394.32253837
  entropy T*S    EENTRO =         0.00000000
  eigenvalues    EBANDS =      -155.67969719
  atomic energy  EATOM  =       771.16334779
  Solvation  Ediel_sol  =         0.00000000
  ---------------------------------------------------
  free energy    TOTEN  =       -21.79952960 eV

  energy without entropy =      -21.79952960  energy(sigma->0) =      -21.79952960


--------------------------------------------------------------------------------------------------------




--------------------------------------- Iteration      1(  10)  ---------------------------------------


    POTLOK:  cpu time    0.1300: real time    0.1339
    SETDIJ:  cpu time    0.0050: real time    0.0048
    EDDIAG:  cpu time    0.1460: real time    0.1468
  RMM-DIIS:  cpu time    0.6969: real time    0.6966
    ORTHCH:  cpu time    0.0140: real time    0.0139
 BZINTS: Fermi energy: -3.576945; 18.000000 electrons
         Band energy:-154.549908;  BLOECHL correction:  0.000000
       DOS:  cpu time    0.0000: real time    0.0002
    CHARGE:  cpu time    0.0650: real time    0.0646
    MIXING:  cpu time    0.0050: real time    0.0056
    --------------------------------------------
      LOOP:  cpu time    1.0618: real time    1.0663

 eigenvalue-minimisations  :   338
 total energy-change (2. order) : 0.7476865E-03  (-0.1760009E-03)
 number of electron      18.0000003 magnetization 
 augmentation part       -0.5506700 magnetization 

 Broyden mixing:
  rms(total) = 0.44340E-02    rms(broyden)= 0.44340E-02
  rms(prec ) = 0.60777E-02
  weight for this iteration     100.00

 eigenvalues of (default mixing * dielectric matrix)
  average eigenvalue GAMMA=   1.6670
  0.6679  1.0372  2.1630  2.2334  2.2334

 Free energy of the ion-electron system (eV)
  ---------------------------------------------------
  alpha Z        PSCENC =        12.51390764
  Ewald energy   TEWEN  =      4286.25630342
  -Hartree energ DENC   =     -4977.76005686
  -exchange      EXHF   =         0.00000000
  -V(xc)+E(xc)   XCENC  =       -35.21986019
  PAW double counting   =       472.38599789     -396.58851373
  entropy T*S    EENTRO =         0.00000000
  eigenvalues    EBANDS =      -154.54990789
  atomic energy  EATOM  =       771.16334779
  Solvation  Ediel_sol  =         0.00000000
  ---------------------------------------------------
  free energy    TOTEN  =       -21.79878191 eV

  energy without entropy =      -21.79878191  energy(sigma->0) =      -21.79878191


--------------------------------------------------------------------------------------------------------




--------------------------------------- Iteration      1(  11)  ---------------------------------------


    POTLOK:  cpu time    0.1320: real time    0.1334
    SETDIJ:  cpu time    0.0050: real time    0.0049
    EDDIAG:  cpu time    0.1460: real time    0.1461
  RMM-DIIS:  cpu time    0.6389: real time    0.6381
    ORTHCH:  cpu time    0.0140: real time    0.0140
 BZINTS: Fermi energy: -3.520385; 18.000000 electrons
         Band energy:-153.433546;  BLOECHL correction:  0.000000
       DOS:  cpu time    0.0000: real time    0.0002
    CHARGE:  cpu time    0.0640: real time    0.0646
    MIXING:  cpu time    0.0060: real time    0.0058
    --------------------------------------------
      LOOP:  cpu time    1.0058: real time    1.0071

 eigenvalue-minimisations  :   312
 total energy-change (2. order) : 0.8751973E-04  (-0.1705952E-03)
 number of electron      18.0000003 magnetization 
 augmentation part       -0.5468654 magnetization 

 Broyden mixing:
  rms(total) = 0.56242E-02    rms(broyden)= 0.56242E-02
  rms(prec ) = 0.64671E-02
  weight for this iteration     100.00

 eigenvalues of (default mixing * dielectric matrix)
  average eigenvalue GAMMA=   1.6710
  2.9135  2.6849  0.6686  0.9280  1.4156  1.4156

 Free energy of the ion-electron system (eV)
  ---------------------------------------------------
  alpha Z        PSCENC =        12.51390764
  Ewald energy   TEWEN  =      4286.25630342
  -Hartree energ DENC   =     -4978.89967273
  -exchange      EXHF   =         0.00000000
  -V(xc)+E(xc)   XCENC  =       -35.20634934
  PAW double counting   =       471.81025403     -396.00293956
  entropy T*S    EENTRO =         0.00000000
  eigenvalues    EBANDS =      -153.43354565
  atomic energy  EATOM  =       771.16334779
  Solvation  Ediel_sol  =         0.00000000
  ---------------------------------------------------
  free energy    TOTEN  =       -21.79869439 eV

  energy without entropy =      -21.79869439  energy(sigma->0) =      -21.79869439


--------------------------------------------------------------------------------------------------------




--------------------------------------- Iteration      1(  12)  ---------------------------------------


    POTLOK:  cpu time    0.1310: real time    0.1334
    SETDIJ:  cpu time    0.0050: real time    0.0049
    EDDIAG:  cpu time    0.1460: real time    0.1462
  RMM-DIIS:  cpu time    0.6229: real time    0.6228
    ORTHCH:  cpu time    0.0140: real time    0.0141
 BZINTS: Fermi energy: -3.484780; 18.000000 electrons
         Band energy:-152.770037;  BLOECHL correction:  0.000000
       DOS:  cpu time    0.0000: real time    0.0002
    CHARGE:  cpu time    0.0650: real time    0.0650
    MIXING:  cpu time    0.0060: real time    0.0060
    --------------------------------------------
      LOOP:  cpu time    0.9899: real time    0.9926

 eigenvalue-minimisations  :   301
 total energy-change (2. order) : 0.2270268E-03  (-0.5530178E-04)
 number of electron      18.0000003 magnetization 
 augmentation part       -0.5496566 magnetization 

 Broyden mixing:
  rms(total) = 0.17095E-02    rms(broyden)= 0.17095E-02
  rms(prec ) = 0.23095E-02
  weight for this iteration     100.00

 eigenvalues of (default mixing * dielectric matrix)
  average eigenvalue GAMMA=   1.9396
  3.8139  2.7221  2.7221  0.6686  0.9624  1.4437  1.2445

 Free energy of the ion-electron system (eV)
  ---------------------------------------------------
  alpha Z        PSCENC =        12.51390764
  Ewald energy   TEWEN  =      4286.25630342
  -Hartree energ DENC   =     -4979.56861202
  -exchange      EXHF   =         0.00000000
  -V(xc)+E(xc)   XCENC  =       -35.20295991
  PAW double counting   =       471.99244736     -396.18286440
  entropy T*S    EENTRO =         0.00000000
  eigenvalues    EBANDS =      -152.77003725
  atomic energy  EATOM  =       771.16334779
  Solvation  Ediel_sol  =         0.00000000
  ---------------------------------------------------
  free energy    TOTEN  =       -21.79846737 eV

  energy without entropy =      -21.79846737  energy(sigma->0) =      -21.79846737


--------------------------------------------------------------------------------------------------------




--------------------------------------- Iteration      1(  13)  ---------------------------------------


    POTLOK:  cpu time    0.1360: real time    0.1362
    SETDIJ:  cpu time    0.0060: real time    0.0050
    EDDIAG:  cpu time    0.1450: real time    0.1458
  RMM-DIIS:  cpu time    0.6129: real time    0.6131
    ORTHCH:  cpu time    0.0140: real time    0.0140
 BZINTS: Fermi energy: -3.446082; 18.000000 electrons
         Band energy:-152.053357;  BLOECHL correction:  0.000000
       DOS:  cpu time    0.0000: real time    0.0002
    CHARGE:  cpu time    0.0650: real time    0.0647
    MIXING:  cpu time    0.0060: real time    0.0064
    --------------------------------------------
      LOOP:  cpu time    0.9848: real time    0.9855

 eigenvalue-minimisations  :   281
 total energy-change (2. order) :-0.2808738E-03  (-0.1529977E-04)
 number of electron      18.0000003 magnetization 
 augmentation part       -0.5480742 magnetization 

 Broyden mixing:
  rms(total) = 0.20225E-02    rms(broyden)= 0.20225E-02
  rms(prec ) = 0.22742E-02
  weight for this iteration     100.00

 eigenvalues of (default mixing * dielectric matrix)
  average eigenvalue GAMMA=   1.9021
  4.7463  2.7007  2.3870  1.4159  1.4159  0.6687  0.9411  0.9411

 Free energy of the ion-electron system (eV)
  ---------------------------------------------------
  alpha Z        PSCENC =        12.51390764
  Ewald energy   TEWEN  =      4286.25630342
  -Hartree energ DENC   =     -4980.28722930
  -exchange      EXHF   =         0.00000000
  -V(xc)+E(xc)   XCENC  =       -35.19612044
  PAW double counting   =       471.94732661     -396.14292691
  entropy T*S    EENTRO =         0.00000000
  eigenvalues    EBANDS =      -152.05335707
  atomic energy  EATOM  =       771.16334779
  Solvation  Ediel_sol  =         0.00000000
  ---------------------------------------------------
  free energy    TOTEN  =       -21.79874824 eV

  energy without entropy =      -21.79874824  energy(sigma->0) =      -21.79874824


--------------------------------------------------------------------------------------------------------




--------------------------------------- Iteration      1(  14)  ---------------------------------------


    POTLOK:  cpu time    0.1370: real time    0.1401
    SETDIJ:  cpu time    0.0060: real time    0.0050
    EDDIAG:  cpu time    0.1470: real time    0.1461
  RMM-DIIS:  cpu time    0.5229: real time    0.5239
    ORTHCH:  cpu time    0.0140: real time    0.0140
 BZINTS: Fermi energy: -3.437332; 18.000000 electrons
         Band energy:-151.898864;  BLOECHL correction:  0.000000
       DOS:  cpu time    0.0010: real time    0.0002
    CHARGE:  cpu time    0.0650: real time    0.0651
    MIXING:  cpu time    0.0060: real time    0.0068
    --------------------------------------------
      LOOP:  cpu time    0.8999: real time    0.9011

 eigenvalue-minimisations  :   251
 total energy-change (2. order) :-0.3460836E-04  (-0.2685752E-05)
 number of electron      18.0000003 magnetization 
 augmentation part       -0.5492423 magnetization 

 Broyden mixing:
  rms(total) = 0.49302E-03    rms(broyden)= 0.49302E-03
  rms(prec ) = 0.68321E-03
  weight for this iteration     100.00

 eigenvalues of (default mixing * dielectric matrix)
  average eigenvalue GAMMA=   2.1557
  6.4224  2.9481  2.3852  2.3852  1.4989  0.6687  1.1912  0.9509  0.9509

 Free energy of the ion-electron system (eV)
  ---------------------------------------------------
  alpha Z        PSCENC =        12.51390764
  Ewald energy   TEWEN  =      4286.25630342
  -Hartree energ DENC   =     -4980.44420637
  -exchange      EXHF   =         0.00000000
  -V(xc)+E(xc)   XCENC  =       -35.19830715
  PAW double counting   =       471.76347152     -395.95443597
  entropy T*S    EENTRO =         0.00000000
  eigenvalues    EBANDS =      -151.89886373
  atomic energy  EATOM  =       771.16334779
  Solvation  Ediel_sol  =         0.00000000
  ---------------------------------------------------
  free energy    TOTEN  =       -21.79878285 eV

  energy without entropy =      -21.79878285  energy(sigma->0) =      -21.79878285


--------------------------------------------------------------------------------------------------------




--------------------------------------- Iteration      1(  15)  ---------------------------------------


    POTLOK:  cpu time    0.1400: real time    0.1398
    SETDIJ:  cpu time    0.0050: real time    0.0049
    EDDIAG:  cpu time    0.1460: real time    0.1463
  RMM-DIIS:  cpu time    0.3989: real time    0.3989
    ORTHCH:  cpu time    0.0140: real time    0.0140
 BZINTS: Fermi energy: -3.428135; 18.000000 electrons
         Band energy:-151.743497;  BLOECHL correction:  0.000000
       DOS:  cpu time    0.0010: real time    0.0002
    CHARGE:  cpu time    0.0640: real time    0.0646
    MIXING:  cpu time    0.0080: real time    0.0073
    --------------------------------------------
      LOOP:  cpu time    0.7759: real time    0.7761

 eigenvalue-minimisations  :   195
 total energy-change (2. order) :-0.1136808E-03  (-0.1141621E-05)
 number of electron      18.0000003 magnetization 
 augmentation part       -0.5490128 magnetization 

 Broyden mixing:
  rms(total) = 0.28187E-03    rms(broyden)= 0.28187E-03
  rms(prec ) = 0.37721E-03
  weight for this iteration     100.00

 eigenvalues of (default mixing * dielectric matrix)
  average eigenvalue GAMMA=   2.1397
  6.5114  3.5454  2.6140  1.7640  1.7640  0.6687  1.5253  1.0576  1.0143  0.9321

 Free energy of the ion-electron system (eV)
  ---------------------------------------------------
  alpha Z        PSCENC =        12.51390764
  Ewald energy   TEWEN  =      4286.25630342
  -Hartree energ DENC   =     -4980.59977372
  -exchange      EXHF   =         0.00000000
  -V(xc)+E(xc)   XCENC  =       -35.19812757
  PAW double counting   =       471.78834730     -395.97940394
  entropy T*S    EENTRO =         0.00000000
  eigenvalues    EBANDS =      -151.74349746
  atomic energy  EATOM  =       771.16334779
  Solvation  Ediel_sol  =         0.00000000
  ---------------------------------------------------
  free energy    TOTEN  =       -21.79889653 eV

  energy without entropy =      -21.79889653  energy(sigma->0) =      -21.79889653


--------------------------------------------------------------------------------------------------------




--------------------------------------- Iteration      1(  16)  ---------------------------------------


    POTLOK:  cpu time    0.1390: real time    0.1423
    SETDIJ:  cpu time    0.0070: real time    0.0061
    EDDIAG:  cpu time    0.1460: real time    0.1469
  RMM-DIIS:  cpu time    0.3979: real time    0.3969
    ORTHCH:  cpu time    0.0140: real time    0.0141
 BZINTS: Fermi energy: -3.424135; 18.000000 electrons
         Band energy:-151.679645;  BLOECHL correction:  0.000000
       DOS:  cpu time    0.0000: real time    0.0002
    CHARGE:  cpu time    0.0650: real time    0.0646
    MIXING:  cpu time    0.0070: real time    0.0076
    --------------------------------------------
      LOOP:  cpu time    0.7759: real time    0.7788

 eigenvalue-minimisations  :   187
 total energy-change (2. order) :-0.3511469E-04  (-0.4533366E-06)
 number of electron      18.0000003 magnetization 
 augmentation part       -0.5491442 magnetization 

 Broyden mixing:
  rms(total) = 0.16732E-03    rms(broyden)= 0.16732E-03
  rms(prec ) = 0.21445E-03
  weight for this iteration     100.00

 eigenvalues of (default mixing * dielectric matrix)
  average eigenvalue GAMMA=   2.2964
  7.3026  3.8696  3.0054  2.6249  2.1441  1.5521  0.6687  1.1232  1.0681  0.9787
  0.9226

 Free energy of the ion-electron system (eV)
  ---------------------------------------------------
  alpha Z        PSCENC =        12.51390764
  Ewald energy   TEWEN  =      4286.25630342
  -Hartree energ DENC   =     -4980.66275980
  -exchange      EXHF   =         0.00000000
  -V(xc)+E(xc)   XCENC  =       -35.19799087
  PAW double counting   =       471.84393361     -396.03602870
  entropy T*S    EENTRO =         0.00000000
  eigenvalues    EBANDS =      -151.67964474
  atomic energy  EATOM  =       771.16334779
  Solvation  Ediel_sol  =         0.00000000
  ---------------------------------------------------
  free energy    TOTEN  =       -21.79893165 eV

  energy without entropy =      -21.79893165  energy(sigma->0) =      -21.79893165


--------------------------------------------------------------------------------------------------------




--------------------------------------- Iteration      1(  17)  ---------------------------------------


    POTLOK:  cpu time    0.1360: real time    0.1361
    SETDIJ:  cpu time    0.0070: real time    0.0061
    EDDIAG:  cpu time    0.1470: real time    0.1469
  RMM-DIIS:  cpu time    0.3669: real time    0.3677
    ORTHCH:  cpu time    0.0140: real time    0.0140
 BZINTS: Fermi energy: -3.422427; 18.000000 electrons
         Band energy:-151.642060;  BLOECHL correction:  0.000000
       DOS:  cpu time    0.0000: real time    0.0002
    CHARGE:  cpu time    0.0650: real time    0.0652
    MIXING:  cpu time    0.0080: real time    0.0076
    --------------------------------------------
      LOOP:  cpu time    0.7439: real time    0.7438

 eigenvalue-minimisations  :   159
 total energy-change (2. order) :-0.4394173E-04  (-0.3271279E-06)
 number of electron      18.0000003 magnetization 
 augmentation part       -0.5491594 magnetization 

 Broyden mixing:
  rms(total) = 0.13817E-03    rms(broyden)= 0.13817E-03
  rms(prec ) = 0.15955E-03
  weight for this iteration     100.00

 eigenvalues of (default mixing * dielectric matrix)
  average eigenvalue GAMMA=   2.3198
  7.7465  4.9514  2.9244  2.4861  2.1177  1.4891  1.4891  0.6687  1.0480  1.0480
  0.9341  0.9341

 Free energy of the ion-electron system (eV)
  ---------------------------------------------------
  alpha Z        PSCENC =        12.51390764
  Ewald energy   TEWEN  =      4286.25630342
  -Hartree energ DENC   =     -4980.70122777
  -exchange      EXHF   =         0.00000000
  -V(xc)+E(xc)   XCENC  =       -35.19813910
  PAW double counting   =       471.79887950     -395.98998718
  entropy T*S    EENTRO =         0.00000000
  eigenvalues    EBANDS =      -151.64205989
  atomic energy  EATOM  =       771.16334779
  Solvation  Ediel_sol  =         0.00000000
  ---------------------------------------------------
  free energy    TOTEN  =       -21.79897559 eV

  energy without entropy =      -21.79897559  energy(sigma->0) =      -21.79897559


--------------------------------------------------------------------------------------------------------




--------------------------------------- Iteration      1(  18)  ---------------------------------------


    POTLOK:  cpu time    0.1360: real time    0.1391
    SETDIJ:  cpu time    0.0070: real time    0.0063
    EDDIAG:  cpu time    0.1460: real time    0.1465
  RMM-DIIS:  cpu time    0.3110: real time    0.3105
    ORTHCH:  cpu time    0.0140: real time    0.0140
 BZINTS: Fermi energy: -3.422577; 18.000000 electrons
         Band energy:-151.643137;  BLOECHL correction:  0.000000
       DOS:  cpu time    0.0000: real time    0.0002
    --------------------------------------------
      LOOP:  cpu time    0.6139: real time    0.6167

 eigenvalue-minimisations  :    83
 total energy-change (2. order) :-0.7143859E-05  (-0.4513717E-07)
 number of electron      18.0000003 magnetization 
 augmentation part       -0.5491594 magnetization 

 Free energy of the ion-electron system (eV)
  ---------------------------------------------------
  alpha Z        PSCENC =        12.51390764
  Ewald energy   TEWEN  =      4286.25630342
  -Hartree energ DENC   =     -4980.69996301
  -exchange      EXHF   =         0.00000000
  -V(xc)+E(xc)   XCENC  =       -35.19812189
  PAW double counting   =       471.80833094     -395.99965091
  entropy T*S    EENTRO =         0.00000000
  eigenvalues    EBANDS =      -151.64313671
  atomic energy  EATOM  =       771.16334779
  Solvation  Ediel_sol  =         0.00000000
  ---------------------------------------------------
  free energy    TOTEN  =       -21.79898273 eV

  energy without entropy =      -21.79898273  energy(sigma->0) =      -21.79898273


--------------------------------------------------------------------------------------------------------




 average (electrostatic) potential at core
  the test charge radii are     1.2296  0.9698
  (the norm of the test charge is              1.0000)
       1 -46.8733       2 -94.7158       3 -94.7158
 
 
 
 E-fermi :  -3.4226     XC(G=0):  -2.8683     alpha+bet : -2.6672


 k-point     1 :       0.0000    0.0000    0.0000
  band No.  band energies     occupation 
      1     -17.4635      2.00000
      2     -16.2554      2.00000
      3      -8.9844      2.00000
      4      -6.0236      2.00000
      5      -6.0236      2.00000
      6      -5.1623      2.00000
      7      -4.9181      2.00000
      8      -4.9181      2.00000
      9      -3.4419      2.00000
     10      -0.6704      0.00000
     11      -0.6704      0.00000
     12      -0.4467      0.00000
     13      -0.4467      0.00000
     14       1.9924      0.00000

 k-point     2 :       0.1250    0.0000    0.0000
  band No.  band energies     occupation 
      1     -17.2494      2.00000
      2     -16.1531      2.00000
      3      -8.7399      2.00000
      4      -6.4871      2.00000
      5      -5.9704      2.00000
      6      -5.7892      2.00000
      7      -5.2538      2.00000
      8      -4.4848      2.00000
      9      -3.5803      2.00000
     10      -0.9504      0.00000
     11      -0.8846      0.00000
     12      -0.6833      0.00000
     13      -0.3156      0.00000
     14       2.3627      0.00000

 k-point     3 :       0.2500    0.0000    0.0000
  band No.  band energies     occupation 
      1     -16.6806      2.00000
      2     -15.8843      2.00000
      3      -8.3738      2.00000
      4      -7.2136      2.00000
      5      -6.9512      2.00000
      6      -5.8889      2.00000
      7      -5.2021      2.00000
      8      -4.7364      2.00000
      9      -4.1483      2.00000
     10      -1.2745      0.00000
     11      -1.0980      0.00000
     12      -0.5559      0.00000
     13       0.3014      0.00000
     14       3.1818      0.00000

 k-point     4 :       0.3750    0.0000    0.0000
  band No.  band energies     occupation 
      1     -16.0055      2.00000
      2     -15.5759      2.00000
      3      -8.8110      2.00000
      4      -7.8186      2.00000
      5      -7.3465      2.00000
      6      -6.3862      2.00000
      7      -5.1457      2.00000
      8      -4.6116      2.00000
      9      -4.3435      2.00000
     10      -1.2794      0.00000
     11      -1.0005      0.00000
     12       0.1627      0.00000
     13       0.6947      0.00000
     14       3.7015      0.00000

 k-point     5 :       0.5000    0.0000    0.0000
  band No.  band energies     occupation 
      1     -15.6773      2.00000
      2     -15.4325      2.00000
      3      -9.1437      2.00000
      4      -8.1835      2.00000
      5      -7.4728      2.00000
      6      -6.5668      2.00000
      7      -5.2846      2.00000
      8      -4.3846      2.00000
      9      -4.0627      2.00000
     10      -1.2571      0.00000
     11      -0.7411      0.00000
     12       0.4612      0.00000
     13       0.8101      0.00000
     14       2.7405      0.00000

 k-point     6 :       0.1250    0.1250    0.0000
  band No.  band energies     occupation 
      1     -16.8565      2.00000
      2     -15.9661      2.00000
      3      -8.3926      2.00000
      4      -7.0510      2.00000
      5      -6.5325      2.00000
      6      -6.0677      2.00000
      7      -5.4497      2.00000
      8      -4.3504      2.00000
      9      -3.9522      2.00000
     10      -1.3497      0.00000
     11      -0.9715      0.00000
     12      -0.9597      0.00000
     13       0.2792      0.00000
     14       2.9655      0.00000

 k-point     7 :       0.2500    0.1250    0.0000
  band No.  band energies     occupation 
      1     -16.2230      2.00000
      2     -15.6675      2.00000
      3      -8.4554      2.00000
      4      -7.4778      2.00000
      5      -7.2146      2.00000
      6      -6.5720      2.00000
      7      -5.3503      2.00000
      8      -4.7126      2.00000
      9      -4.2359      2.00000
     10      -1.4330      0.00000
     11      -0.9845      0.00000
     12      -0.4897      0.00000
     13       0.7871      0.00000
     14       3.9248      0.00000

 k-point     8 :       0.3750    0.1250    0.0000
  band No.  band energies     occupation 
      1     -15.6925      2.00000
      2     -15.4236      2.00000
      3      -8.8563      2.00000
      4      -8.2408      2.00000
      5      -7.3450      2.00000
      6      -6.5888      2.00000
      7      -5.3351      2.00000
      8      -5.1944      2.00000
      9      -3.9090      2.00000
     10      -1.2382      0.00000
     11      -0.7279      0.00000
     12       0.1320      0.00000
     13       0.8208      0.00000
     14       3.2674      0.00000

 k-point     9 :       0.2500    0.2500    0.0000
  band No.  band energies     occupation 
      1     -15.7074      2.00000
      2     -15.4146      2.00000
      3      -8.4960      2.00000
      4      -8.2916      2.00000
      5      -7.0178      2.00000
      6      -6.6371      2.00000
      7      -6.3180      2.00000
      8      -5.0609      2.00000
      9      -3.9378      2.00000
     10      -1.2893      0.00000
     11      -0.6782      0.00000
     12      -0.3666      0.00000
     13       1.1088      0.00000
     14       4.0997      0.00000

 k-point    10 :       0.3750    0.2500    0.0000
  band No.  band energies     occupation 
      1     -15.4726      2.00000
      2     -15.2954      2.00000
      3      -8.6760      2.00000
      4      -8.3269      2.00000
      5      -7.3022      2.00000
      6      -6.6396      2.00000
      7      -6.4094      2.00000
      8      -5.4472      2.00000
      9      -3.5704      2.00000
     10      -1.6149      0.00000
     11      -0.3082      0.00000
     12      -0.1276      0.00000
     13       1.2541      0.00000
     14       3.5103      0.00000


--------------------------------------------------------------------------------------------------------


 soft charge-density along one line, spin component           1
         0         1         2         3         4         5         6         7         8         9
 total charge-density along one line
 
 pseudopotential strength for first ion, spin component:           1
 -9.986  -0.000  -0.000   0.000  -0.000   0.102   0.000   0.000
 -0.000  -9.987  -0.000  -0.000   0.000   0.000   0.102   0.000
 -0.000  -0.000  -9.966  -0.000  -0.000   0.000   0.000   0.101
  0.000  -0.000  -0.000  -9.987  -0.000  -0.000   0.000   0.000
 -0.000   0.000  -0.000  -0.000  -9.986   0.000  -0.000   0.000
  0.102   0.000   0.000  -0.000   0.000   0.098  -0.000   0.000
  0.000   0.102   0.000   0.000  -0.000  -0.000   0.098  -0.000
  0.000   0.000   0.101   0.000   0.000   0.000  -0.000   0.098
 -0.000   0.000   0.000   0.102   0.000  -0.000  -0.000  -0.000
  0.000  -0.000   0.000   0.000   0.102  -0.000   0.000  -0.000
  0.000   0.000  -0.005   0.000  -0.000  -0.000  -0.000   0.000
 -0.000  -0.000   0.001  -0.000   0.000   0.000   0.000  -0.000
 -0.000  -0.000  -0.000  -0.000  -0.007   0.000  -0.000   0.000
 -0.000   0.000   0.000  -0.000  -0.000  -0.000  -0.000  -0.000
 -0.007  -0.000   0.000  -0.000  -0.000  -0.000  -0.000  -0.000
  0.000   0.000   0.000   0.000   0.004  -0.000   0.000  -0.000
  0.000  -0.000  -0.000   0.000   0.000  -0.000   0.000   0.000
  0.004   0.000  -0.000   0.000   0.000   0.000  -0.000   0.000
 total augmentation occupancy for first ion, spin component:           1
  0.965   0.000  -0.000  -0.000  -0.000   0.595   0.000  -0.000  -0.000  -0.000  -0.000   0.000   0.000   0.000  -0.065  -0.000
  0.000   0.907   0.000   0.000  -0.000   0.000   0.833   0.000   0.000  -0.000   0.000   0.000   0.000   0.000   0.000   0.000
 -0.000   0.000   1.029   0.000   0.000  -0.000   0.000   0.495   0.000   0.000   0.111  -0.019  -0.000  -0.000   0.000   0.000
  0.000   0.000   0.000   0.907   0.000   0.000   0.000   0.000   0.833   0.000   0.000  -0.000   0.000   0.000  -0.000  -0.000
 -0.000   0.000   0.000   0.000   0.965  -0.000   0.000   0.000   0.000   0.595   0.000  -0.000  -0.065   0.000  -0.000   0.007
  0.595   0.000  -0.000   0.000   0.000   0.670   0.000  -0.000   0.000  -0.000   0.000   0.000   0.000   0.000  -0.136  -0.000
  0.000   0.833   0.000   0.000  -0.000   0.000   1.069   0.000   0.000   0.000   0.000  -0.000   0.000   0.000   0.000  -0.000
 -0.000   0.000   0.495   0.000   0.000  -0.000   0.000   0.470   0.000   0.000   0.058  -0.021  -0.000  -0.000   0.000   0.000
 -0.000   0.000  -0.000   0.833   0.000  -0.000   0.000  -0.000   1.069   0.000   0.000   0.000   0.000  -0.000  -0.000  -0.000
 -0.000  -0.000   0.000   0.000   0.595  -0.000   0.000   0.000   0.000   0.670   0.000  -0.000  -0.136   0.000  -0.000   0.023
 -0.000   0.000   0.111   0.000   0.000   0.000   0.000   0.058   0.000   0.000   1.207  -0.186   0.000   0.000  -0.000   0.000
  0.000   0.000  -0.019  -0.000  -0.000   0.000  -0.000  -0.021  -0.000  -0.000  -0.186   0.042   0.000   0.000  -0.000   0.000
  0.000   0.000  -0.000   0.000  -0.065   0.000   0.000  -0.000  -0.000  -0.136   0.000   0.000   0.217   0.000   0.000  -0.032
 -0.000   0.000  -0.000  -0.000   0.000   0.000   0.000  -0.000  -0.000   0.000  -0.000   0.000   0.000   0.264   0.000   0.000
 -0.065   0.000   0.000   0.000  -0.000  -0.136  -0.000   0.000   0.000  -0.000  -0.000  -0.000   0.000   0.000   0.217  -0.000
 -0.000  -0.000   0.000  -0.000   0.007  -0.000   0.000   0.000   0.000   0.023   0.000   0.000  -0.032   0.000  -0.000   0.005
  0.000  -0.000   0.000  -0.000   0.000  -0.000   0.000  -0.000  -0.000   0.000   0.000   0.000   0.000  -0.038   0.000   0.000
  0.007   0.000  -0.000  -0.000   0.000   0.023   0.000  -0.000   0.000   0.000  -0.000   0.000  -0.000   0.000  -0.032   0.000


------------------------ aborting loop because EDIFF is reached ----------------------------------------


    CHARGE:  cpu time    0.0650: real time    0.0655
    FORLOC:  cpu time    0.0120: real time    0.0113
    FORNL :  cpu time    0.1160: real time    0.1159
    STRESS:  cpu time    0.5919: real time    0.5929
    FORCOR:  cpu time    0.1540: real time    0.1536
    FORHAR:  cpu time    0.0380: real time    0.0374
    MIXING:  cpu time    0.0080: real time    0.0084
    OFIELD:  cpu time    0.0000: real time    0.0000

  DFT-D2 method for vdW energy calculation
  -------------------------------------------------------------------

  Parameters of vdW forcefield:
         C6(Jnm^6/mol)     R0(A)
   -----------------------------
   Mo      24.670          1.639
   S        5.570          1.683

  IVDW =   1
  VDW_RADIUS =    50.000 A
  VDW_S6 =     0.750
  VDW_SR =     1.000
  VDW_D =    20.000
  LVDW_EWALD = F

  Number of pair interactions contributing to vdW energy:   12957
  Edisp (eV):   -0.59091
    FORVDW:  cpu time    0.0110: real time    0.0178

  FORCE on cell =-STRESS in cart. coord.  units (eV):
  Direction    XX          YY          ZZ          XY          YZ          ZX
  --------------------------------------------------------------------------------------
  Alpha Z    12.51391    12.51391    12.51391
  Ewald    4853.12264  4853.12308 -5419.98957     0.00019     0.00000     0.00012
  Hartree  4942.42585  4942.42585 -4904.14917     0.00002    -0.00000    -0.00000
  E(xc)     -70.30221   -70.30221   -70.90720    -0.00000     0.00000    -0.00000
  Local  -10076.21412-10076.21439 10037.50827    -0.00016    -0.00000    -0.00006
  n-local   127.16464   125.78804   131.68363    -0.25753    -0.00000    -0.00000
  augment   -25.56294   -25.56293   -26.66579     0.00002     0.00000    -0.00000
  Kinetic   235.85772   238.65871   239.77609    -7.40907     0.00001     0.00002
  Fock        0.00000     0.00000     0.00000     0.00000     0.00000     0.00000
  vdW         0.16041     0.16041    -0.13425     0.00000     0.00000    -0.00000
  -------------------------------------------------------------------------------------
  Total      -0.12182    -0.12182    -0.36408    -0.00000     0.00000     0.00000
  in kB      -0.82378    -0.82378    -2.46207    -0.00000     0.00000     0.00000
  external pressure =       -1.37 kB  Pullay stress =        0.00 kB


 VOLUME and BASIS-vectors are now :
 -----------------------------------------------------------------------------
  energy-cutoff  :      950.00
  volume of cell :      236.93
      direct lattice vectors                 reciprocal lattice vectors
     3.190315730  0.000000000  0.000000000     0.313448600  0.180969634  0.000000000
    -1.595157865  2.762894468  0.000000000     0.000000000  0.361939267  0.000000000
     0.000000000  0.000000000 26.879004300     0.000000000  0.000000000  0.037203759

  length of vectors
     3.190315730  3.190315730 26.879004300     0.361939267  0.361939267  0.037203759


 FORCES acting on ions
    electron-ion (+dipol)            ewald-force                    non-local-force                 convergence-correction
 -----------------------------------------------------------------------------------------------
   -.117E-04 -.444E-06 -.410E-06   0.931E-04 -.108E-03 0.307E-06   -.243E-16 -.208E-16 0.635E-21   0.849E-09 -.165E-08 -.192E-07
   -.854E-03 0.495E-03 0.579E+03   -.864E-04 0.538E-04 -.584E+03   -.165E-16 -.347E-17 0.480E+01   -.138E-07 0.713E-08 0.261E-02
   0.865E-03 0.495E-03 -.579E+03   -.674E-05 0.538E-04 0.584E+03   -.278E-16 -.520E-17 -.480E+01   0.123E-07 0.713E-08 -.261E-02
 -----------------------------------------------------------------------------------------------
   -.105E-05 0.989E-03 0.321E-04   0.897E-14 0.972E-14 -.114E-12   -.685E-16 -.295E-16 0.888E-15   -.605E-09 0.126E-07 -.553E-07
 
 
 POSITION                                       TOTAL-FORCE (eV/Angst)
 -----------------------------------------------------------------------------------
     -0.00000      1.84193      3.71975         0.000000     -0.000000     -0.000000
      1.59516      0.92096      2.15487         0.000000      0.000000      0.115012
      1.59516      0.92096      5.28464        -0.000000      0.000000     -0.115012
 -----------------------------------------------------------------------------------
    total drift:                               -0.000001      0.000989      0.000032


--------------------------------------------------------------------------------------------------------



  FREE ENERGIE OF THE ION-ELECTRON SYSTEM (eV)
  ---------------------------------------------------
  free  energy   TOTEN  =       -22.38989179 eV

  energy  without entropy=      -22.38989179  energy(sigma->0) =      -22.38989179
 


--------------------------------------------------------------------------------------------------------


    POTLOK:  cpu time    0.1440: real time    0.1430


--------------------------------------------------------------------------------------------------------


     LOOP+:  cpu time   18.5092: real time   19.0638
    4ORBIT:  cpu time    0.0000: real time    0.0000
 BZINTS: Fermi energy: -3.422577; 18.000000 electrons
         Band energy:-151.643137;  BLOECHL correction:  0.000000

 total amount of memory used by VASP MPI-rank0    88057. kBytes
=======================================================================

   base      :      30000. kBytes
   nonl-proj :      23131. kBytes
   fftplans  :      10001. kBytes
   grid      :      16017. kBytes
   one-center:         31. kBytes
   wavefun   :       8877. kBytes
 
  
  
 General timing and accounting informations for this job:
 ========================================================
  
                  Total CPU time used (sec):       20.537
                            User time (sec):       19.848
                          System time (sec):        0.689
                         Elapsed time (sec):       22.424
  
                   Maximum memory used (kb):       92364.
                   Average memory used (kb):           0.
  
                          Minor page faults:        59301
                          Major page faults:          102
                 Voluntary context switches:         2779
