perl: warning: Setting locale failed.
perl: warning: Please check that your locale settings:
	LANGUAGE = (unset),
	LC_ALL = (unset),
	LC_CTYPE = "UTF-8",
	LANG = "en_US.iso885915"
    are supported and installed on your system.
perl: warning: Falling back to the standard locale ("C").
Starting job 28532700 ("jobname") on c15-7 at Fri Nov 8 12:01:02 CET 2019
 running on    4 total cores
 distrk:  each k-point on    4 cores,    1 groups
 distr:  one band on    2 cores,    2 groups
 using from now: INCAR     
 vasp.5.4.4.18Apr17-6-g9f103f2a35 (build Jun 30 2017 11:15:00) complex          
  
 POSCAR found type information on POSCAR  Mo S 
 POSCAR found :  2 types and       3 ions
 scaLAPACK will be used
 WARNING: PSMAXN for non-local potential too small
 LDA part: xc-table for Pade appr. of Perdew
 POSCAR, INCAR and KPOINTS ok, starting setup
 FFT: planning ...
 WAVECAR not read
 entering main loop
       N       E                     dE             d eps       ncg     rms          rms(c)
DAV:   1     0.165646345845E+03    0.16565E+03   -0.79850E+03   280   0.147E+03
DAV:   2    -0.404787982863E+01   -0.16969E+03   -0.16229E+03   496   0.198E+02
DAV:   3    -0.229691146497E+02   -0.18921E+02   -0.18655E+02   388   0.818E+01
DAV:   4    -0.233978964964E+02   -0.42878E+00   -0.42702E+00   352   0.152E+01
DAV:   5    -0.234096574441E+02   -0.11761E-01   -0.11757E-01   376   0.244E+00    0.689E+00
RMM:   6    -0.222492002928E+02    0.11605E+01   -0.54264E+00   296   0.125E+01    0.261E+00
RMM:   7    -0.218642796292E+02    0.38492E+00   -0.55152E-01   290   0.341E+00    0.150E+00
RMM:   8    -0.218043703422E+02    0.59909E-01   -0.23351E-01   311   0.253E+00    0.355E-01
RMM:   9    -0.217995296012E+02    0.48407E-02   -0.89011E-03   332   0.617E-01    0.963E-02
RMM:  10    -0.217987819146E+02    0.74769E-03   -0.17600E-03   338   0.225E-01    0.443E-02
RMM:  11    -0.217986943949E+02    0.87520E-04   -0.17060E-03   312   0.196E-01    0.562E-02
RMM:  12    -0.217984673681E+02    0.22703E-03   -0.55302E-04   301   0.133E-01    0.171E-02
RMM:  13    -0.217987482419E+02   -0.28087E-03   -0.15300E-04   281   0.730E-02    0.202E-02
RMM:  14    -0.217987828503E+02   -0.34608E-04   -0.26858E-05   251   0.301E-02    0.493E-03
RMM:  15    -0.217988965311E+02   -0.11368E-03   -0.11416E-05   195   0.182E-02    0.282E-03
RMM:  16    -0.217989316458E+02   -0.35115E-04   -0.45334E-06   187   0.959E-03    0.167E-03
RMM:  17    -0.217989755875E+02   -0.43942E-04   -0.32713E-06   159   0.792E-03    0.138E-03
RMM:  18    -0.217989827313E+02   -0.71439E-05   -0.45137E-07    83   0.411E-03
   1 F= -.22389892E+02 E0= -.22389892E+02  d E =0.000000E+00

Currently Loaded Modulefiles:
  1) Anaconda3/5.1.0       3) vesta/3.3.8           5) intel/2016.1
  2) gnuplot/5.0.4         4) imagemagick/6.7.9-0   6) vasp/5.4.1.Feb16

Job script resource usage:
       JobID  MaxVMSize     MaxRSS 
------------ ---------- ---------- 
28532700.ba+    216888K      1920K 

Job step resource usage:
       JobID    JobName  AllocCPUS  MaxVMSize     MaxRSS    Elapsed ExitCode 
------------ ---------- ---------- ---------- ---------- ---------- -------- 
28532700        jobname          4                         00:00:25      0:0 
28532700.0    pmi_proxy          1    279832K       521K   00:00:24      0:0 

Job 28532700 ("jobname") completed on c15-7 at Fri Nov 8 12:01:26 CET 2019
