    6    6    1    1
  0.1953567E+02  0.3192274E-09  0.3192274E-09  0.1328155E-08  0.5000000E-15
  1.000000000000000E-004
  CAR 
 unknown system                          
     36     60     22
 
  0.0000000E+00  0.0000000E+00  0.0000000E+00  0.1666667E-01
    1       -9.910290   1.000000
    2       -9.810960   1.000000
    3       -8.722640   1.000000
    4       -8.554623   1.000000
    5       -1.649897   1.000000
    6       -1.126730   1.000000
    7        1.561612   1.000000
    8        1.561617   1.000000
    9        1.565650   1.000000
   10        1.565655   1.000000
   11        1.833184   1.000000
   12        2.673047   1.000000
   13        2.673079   1.000000
   14        2.687286   1.000000
   15        2.687318   1.000000
   16        3.220877   1.000000
   17        3.862770   1.000000
   18        4.623235   0.999979
   19        6.949553   0.000000
   20        6.962343   0.000000
   21        7.030135   0.000000
   22        7.160548   0.000000
 
  0.2631579E-01  0.0000000E+00  0.0000000E+00  0.1666667E-01
    1       -9.900544   1.000000
    2       -9.801273   1.000000
    3       -8.717759   1.000000
    4       -8.550252   1.000000
    5       -1.638187   1.000000
    6       -1.115156   1.000000
    7        1.538043   1.000000
    8        1.542312   1.000000
    9        1.572296   1.000000
   10        1.576529   1.000000
   11        1.799627   1.000000
   12        2.604094   1.000000
   13        2.655891   1.000000
   14        2.670327   1.000000
   15        2.708751   1.000000
   16        3.271634   1.000000
   17        3.862526   1.000000
   18        4.609894   0.999986
   19        6.936822   0.000000
   20        6.950589   0.000000
   21        7.001624   0.000000
   22        7.030426   0.000000
 
  0.5263158E-01  0.0000000E+00  0.0000000E+00  0.1666667E-01
    1       -9.871374   1.000000
    2       -9.772356   1.000000
    3       -8.703215   1.000000
    4       -8.537207   1.000000
    5       -1.603472   1.000000
    6       -1.080933   1.000000
    7        1.469170   1.000000
    8        1.474206   1.000000
    9        1.604121   1.000000
   10        1.608936   1.000000
   11        1.709650   1.000000
   12        2.445621   1.000000
   13        2.605806   1.000000
   14        2.620803   1.000000
   15        2.761209   1.000000
   16        3.373454   1.000000
   17        3.860932   1.000000
   18        4.569184   0.999996
   19        6.896402   0.000000
   20        6.962438   0.000000
   21        7.053789   0.000000
   22        7.085390   0.000000
 
  0.7894737E-01  0.0000000E+00  0.0000000E+00  0.1666667E-01
    1       -9.823237   1.000000
    2       -9.724644   1.000000
    3       -8.679204   1.000000
    4       -8.515713   1.000000
    5       -1.547016   1.000000
    6       -1.025588   1.000000
    7        1.360236   1.000000
    8        1.366757   1.000000
    9        1.583130   1.000000
   10        1.656465   1.000000
   11        1.662200   1.000000
   12        2.250112   1.000000
   13        2.526764   1.000000
   14        2.542609   1.000000
   15        2.821565   1.000000
   16        3.468543   1.000000
   17        3.855444   1.000000
   18        4.499495   1.000000
   19        6.826642   0.000000
   20        6.865280   0.000000
   21        6.957135   0.000000
   22        7.048857   0.000000
 
  0.1052632E+00  0.0000000E+00  0.0000000E+00  0.1666667E-01
    1       -9.756808   1.000000
    2       -9.658825   1.000000
    3       -8.646092   1.000000
    4       -8.486116   1.000000
    5       -1.471103   1.000000
    6       -0.951955   1.000000
    7        1.218978   1.000000
    8        1.228188   1.000000
    9        1.435188   1.000000
   10        1.728240   1.000000
   11        1.735238   1.000000
   12        2.038034   1.000000
   13        2.424341   1.000000
   14        2.441199   1.000000
   15        2.870309   1.000000
   16        3.529955   1.000000
   17        3.841848   1.000000
   18        4.399349   1.000000
   19        6.744580   0.000000
   20        6.798265   0.000000
   21        6.828734   0.000000
   22        6.929112   0.000000
 
  0.1315789E+00  0.0000000E+00  0.0000000E+00  0.1666667E-01
    1       -9.673040   1.000000
    2       -9.575935   1.000000
    3       -8.604393   1.000000
    4       -8.448918   1.000000
    5       -1.379281   1.000000
    6       -0.864650   1.000000
    7        1.054634   1.000000
    8        1.068736   1.000000
    9        1.274544   1.000000
   10        1.817323   1.000000
   11        1.817900   1.000000
   12        1.826485   1.000000
   13        2.304707   1.000000
   14        2.322675   1.000000
   15        2.894727   1.000000
   16        3.545349   1.000000
   17        3.814564   1.000000
   18        4.269026   1.000000
   19        6.561887   0.000000
   20        6.700097   0.000000
   21        6.831095   0.000000
   22        6.904150   0.000000
 
  0.1578947E+00  0.0000000E+00  0.0000000E+00  0.1666667E-01
    1       -9.573212   1.000000
    2       -9.477290   1.000000
    3       -8.554798   1.000000
    4       -8.404785   1.000000
    5       -1.276846   1.000000
    6       -0.770968   1.000000
    7        0.877349   1.000000
    8        0.900288   1.000000
    9        1.105915   1.000000
   10        1.591739   1.000000
   11        1.923378   1.000000
   12        1.933952   1.000000
   13        2.173891   1.000000
   14        2.192978   1.000000
   15        2.888641   1.000000
   16        3.512535   1.000000
   17        3.767630   1.000000
   18        4.112152   1.000000
   19        6.387552   0.000000
   20        6.692850   0.000000
   21        6.797754   0.000000
   22        6.843373   0.000000
 
  0.1842105E+00  0.0000000E+00  0.0000000E+00  0.1666667E-01
    1       -9.458917   1.000000
    2       -9.364584   1.000000
    3       -8.498169   1.000000
    4       -8.354541   1.000000
    5       -1.171571   1.000000
    6       -0.682346   1.000000
    7        0.697960   1.000000
    8        0.736991   1.000000
    9        0.931896   1.000000
   10        1.363529   1.000000
   11        2.037285   1.000000
   12        2.042068   1.000000
   13        2.055115   1.000000
   14        2.057455   1.000000
   15        2.852110   1.000000
   16        3.437829   1.000000
   17        3.696769   1.000000
   18        3.936634   1.000000
   19        6.249181   0.000000
   20        6.696720   0.000000
   21        6.746901   0.000000
   22        6.831453   0.000000
 
  0.2105263E+00  0.0000000E+00  0.0000000E+00  0.1666667E-01
    1       -9.332105   1.000000
    2       -9.239816   1.000000
    3       -8.435560   1.000000
    4       -8.299172   1.000000
    5       -1.074569   1.000000
    6       -0.615998   1.000000
    7        0.528365   1.000000
    8        0.596245   1.000000
    9        0.754232   1.000000
   10        1.134620   1.000000
   11        1.899511   1.000000
   12        1.920705   1.000000
   13        2.170855   1.000000
   14        2.186943   1.000000
   15        2.790496   1.000000
   16        3.332961   1.000000
   17        3.601909   1.000000
   18        3.754916   1.000000
   19        6.159143   0.000000
   20        6.669381   0.000000
   21        6.709882   0.000000
   22        6.726927   0.000000
 
  0.2368421E+00  0.0000000E+00  0.0000000E+00  0.1666667E-01
    1       -9.195096   1.000000
    2       -9.105402   1.000000
    3       -8.368213   1.000000
    4       -8.239917   1.000000
    5       -1.000896   1.000000
    6       -0.593498   1.000000
    7        0.381710   1.000000
    8        0.496934   1.000000
    9        0.574526   1.000000
   10        0.907067   1.000000
   11        1.764413   1.000000
   12        1.786537   1.000000
   13        2.306121   1.000000
   14        2.325893   1.000000
   15        2.712507   1.000000
   16        3.210852   1.000000
   17        3.487883   1.000000
   18        3.584335   1.000000
   19        6.118963   0.000000
   20        6.524496   0.000000
   21        6.604184   0.000000
   22        6.773508   0.000000
 
  0.2631579E+00  0.0000000E+00  0.0000000E+00  0.1666667E-01
    1       -9.050663   1.000000
    2       -8.964201   1.000000
    3       -8.297594   1.000000
    4       -8.178190   1.000000
    5       -0.967378   1.000000
    6       -0.629877   1.000000
    7        0.270505   1.000000
    8        0.394799   1.000000
    9        0.448793   1.000000
   10        0.683505   1.000000
   11        1.635111   1.000000
   12        1.658073   1.000000
   13        2.443780   1.000000
   14        2.467963   1.000000
   15        2.627572   1.000000
   16        3.082712   1.000000
   17        3.364321   1.000000
   18        3.445300   1.000000
   19        6.120980   0.000000
   20        6.471038   0.000000
   21        6.528855   0.000000
   22        6.718175   0.000000
 
  0.2894737E+00  0.0000000E+00  0.0000000E+00  0.1666667E-01
    1       -8.902055   1.000000
    2       -8.819552   1.000000
    3       -8.225376   1.000000
    4       -8.115579   1.000000
    5       -0.985059   1.000000
    6       -0.719649   1.000000
    7        0.199813   1.000000
    8        0.217849   1.000000
    9        0.439628   1.000000
   10        0.467124   1.000000
   11        1.514146   1.000000
   12        1.537842   1.000000
   13        2.544071   1.000000
   14        2.579439   1.000000
   15        2.608810   1.000000
   16        2.956836   1.000000
   17        3.253685   1.000000
   18        3.347949   1.000000
   19        6.159686   0.000000
   20        6.391267   0.000000
   21        6.463912   0.000000
   22        6.720954   0.000000
 
  0.3157895E+00  0.0000000E+00  0.0000000E+00  0.1666667E-01
    1       -8.753000   1.000000
    2       -8.675301   1.000000
    3       -8.153465   1.000000
    4       -8.053897   1.000000
    5       -1.050397   1.000000
    6       -0.842164   1.000000
    7        0.047198   1.000000
    8        0.160457   1.000000
    9        0.261713   1.000000
   10        0.443291   1.000000
   11        1.403540   1.000000
   12        1.427876   1.000000
   13        2.468272   1.000000
   14        2.708670   1.000000
   15        2.743936   1.000000
   16        2.838681   1.000000
   17        3.180948   1.000000
   18        3.294820   1.000000
   19        6.228847   0.000000
   20        6.349590   0.000000
   21        6.414299   0.000000
   22        6.756455   0.000000
 
  0.3421053E+00  0.0000000E+00  0.0000000E+00  0.1666667E-01
    1       -8.607787   1.000000
    2       -8.535723   1.000000
    3       -8.083922   1.000000
    4       -7.995125   1.000000
    5       -1.147339   1.000000
    6       -0.977142   1.000000
    7       -0.113025   1.000000
    8        0.071439   1.000000
    9        0.134262   1.000000
   10        0.438742   1.000000
   11        1.304917   1.000000
   12        1.329796   1.000000
   13        2.404190   1.000000
   14        2.731439   1.000000
   15        2.827250   1.000000
   16        2.868945   1.000000
   17        3.157617   1.000000
   18        3.288455   1.000000
   19        6.318327   0.000000
   20        6.323051   0.000000
   21        6.379963   0.000000
   22        6.775256   0.000000
 
  0.3684211E+00  0.0000000E+00  0.0000000E+00  0.1666667E-01
    1       -8.471208   1.000000
    2       -8.405582   1.000000
    3       -8.018963   1.000000
    4       -7.941306   1.000000
    5       -1.257474   1.000000
    6       -1.110179   1.000000
    7       -0.258379   1.000000
    8       -0.099356   1.000000
    9        0.106723   1.000000
   10        0.417905   1.000000
   11        1.219568   1.000000
   12        1.244897   1.000000
   13        2.353863   1.000000
   14        2.636748   1.000000
   15        2.931567   1.000000
   16        2.979953   1.000000
   17        3.183178   1.000000
   18        3.324148   1.000000
   19        6.311359   0.000000
   20        6.360000   0.000000
   21        6.420468   0.000000
   22        6.808872   0.000000
 
  0.3947368E+00  0.0000000E+00  0.0000000E+00  0.1666667E-01
    1       -8.348464   1.000000
    2       -8.289941   1.000000
    3       -7.960915   1.000000
    4       -7.894441   1.000000
    5       -1.365821   1.000000
    6       -1.231405   1.000000
    7       -0.384443   1.000000
    8       -0.246380   1.000000
    9        0.073329   1.000000
   10        0.383461   1.000000
   11        1.148498   1.000000
   12        1.174197   1.000000
   13        2.317851   1.000000
   14        2.555342   1.000000
   15        3.018922   1.000000
   16        3.073763   1.000000
   17        3.247582   1.000000
   18        3.387972   1.000000
   19        6.311500   0.000000
   20        6.350806   0.000000
   21        6.526207   0.000000
   22        6.844623   0.000000
 
  0.4210526E+00  0.0000000E+00  0.0000000E+00  0.1666667E-01
    1       -8.244951   1.000000
    2       -8.193802   1.000000
    3       -7.912068   1.000000
    4       -7.856418   1.000000
    5       -1.461249   1.000000
    6       -1.333565   1.000000
    7       -0.487105   1.000000
    8       -0.365628   1.000000
    9        0.037366   1.000000
   10        0.343656   1.000000
   11        1.092477   1.000000
   12        1.118453   1.000000
   13        2.295581   1.000000
   14        2.487683   1.000000
   15        3.087578   1.000000
   16        3.148157   1.000000
   17        3.334036   1.000000
   18        3.460496   1.000000
   19        6.319101   0.000000
   20        6.350301   0.000000
   21        6.627801   0.000000
   22        6.878212   0.000000
 
  0.4473684E+00  0.0000000E+00  0.0000000E+00  0.1666667E-01
    1       -8.165983   1.000000
    2       -8.121703   1.000000
    3       -7.874670   1.000000
    4       -7.828723   1.000000
    5       -1.535466   1.000000
    6       -1.410968   1.000000
    7       -0.563012   1.000000
    8       -0.453601   1.000000
    9        0.005322   1.000000
   10        0.307689   1.000000
   11        1.052067   1.000000
   12        1.078260   1.000000
   13        2.285361   1.000000
   14        2.434638   1.000000
   15        3.136717   1.000000
   16        3.201815   1.000000
   17        3.422608   1.000000
   18        3.521980   1.000000
   19        6.329438   0.000000
   20        6.354029   0.000000
   21        6.714404   0.000000
   22        6.907196   0.000000
 
  0.4736842E+00  0.0000000E+00  0.0000000E+00  0.1666667E-01
    1       -8.116234   1.000000
    2       -8.077120   1.000000
    3       -7.850921   1.000000
    4       -7.812148   1.000000
    5       -1.582473   1.000000
    6       -1.459282   1.000000
    7       -0.609575   1.000000
    8       -0.507586   1.000000
    9       -0.016637   1.000000
   10        0.283005   1.000000
   11        1.027676   1.000000
   12        1.053979   1.000000
   13        2.283799   1.000000
   14        2.398714   1.000000
   15        3.166130   1.000000
   16        3.234133   1.000000
   17        3.493138   1.000000
   18        3.557569   1.000000
   19        6.337870   0.000000
   20        6.358178   0.000000
   21        6.773460   0.000000
   22        6.927516   0.000000
 
  0.5000000E+00  0.0000000E+00  0.0000000E+00  0.1666667E-01
    1       -8.099209   1.000000
    2       -8.062061   1.000000
    3       -7.842719   1.000000
    4       -7.806679   1.000000
    5       -1.598585   1.000000
    6       -1.475705   1.000000
    7       -0.625255   1.000000
    8       -0.525785   1.000000
    9       -0.024423   1.000000
   10        0.274257   1.000000
   11        1.019539   1.000000
   12        1.045856   1.000000
   13        2.284732   1.000000
   14        2.385374   1.000000
   15        3.175896   1.000000
   16        3.244909   1.000000
   17        3.523184   1.000000
   18        3.565745   1.000000
   19        6.341056   0.000000
   20        6.359900   0.000000
   21        6.794700   0.000000
   22        6.934152   0.000000
 
  0.5000000E+00  0.0000000E+00  0.0000000E+00  0.1666667E-01
    1       -8.099209   1.000000
    2       -8.062061   1.000000
    3       -7.842719   1.000000
    4       -7.806679   1.000000
    5       -1.598585   1.000000
    6       -1.475705   1.000000
    7       -0.625255   1.000000
    8       -0.525785   1.000000
    9       -0.024423   1.000000
   10        0.274257   1.000000
   11        1.019539   1.000000
   12        1.045856   1.000000
   13        2.284732   1.000000
   14        2.385374   1.000000
   15        3.175896   1.000000
   16        3.244909   1.000000
   17        3.523184   1.000000
   18        3.565745   1.000000
   19        6.341063   0.000000
   20        6.359897   0.000000
   21        6.794709   0.000000
   22        6.934208   0.000000
 
  0.4912263E+00  0.1754211E-01  0.0000000E+00  0.1666667E-01
    1       -8.097739   1.000000
    2       -8.060681   1.000000
    3       -7.841701   1.000000
    4       -7.805745   1.000000
    5       -1.594047   1.000000
    6       -1.471277   1.000000
    7       -0.627690   1.000000
    8       -0.530318   1.000000
    9       -0.022678   1.000000
   10        0.275615   1.000000
   11        1.020622   1.000000
   12        1.042775   1.000000
   13        2.284779   1.000000
   14        2.387549   1.000000
   15        3.141913   1.000000
   16        3.210059   1.000000
   17        3.540760   1.000000
   18        3.585829   1.000000
   19        6.344989   0.000000
   20        6.359949   0.000000
   21        6.795202   0.000000
   22        6.938091   0.000000
 
  0.4824526E+00  0.3508421E-01  0.0000000E+00  0.1666667E-01
    1       -8.093368   1.000000
    2       -8.056568   1.000000
    3       -7.838667   1.000000
    4       -7.802938   1.000000
    5       -1.580474   1.000000
    6       -1.458040   1.000000
    7       -0.634993   1.000000
    8       -0.543808   1.000000
    9       -0.017474   1.000000
   10        0.279645   1.000000
   11        1.023997   1.000000
   12        1.034009   1.000000
   13        2.284791   1.000000
   14        2.393706   1.000000
   15        3.054586   1.000000
   16        3.122601   1.000000
   17        3.579583   1.000000
   18        3.629541   1.000000
   19        6.355877   0.000000
   20        6.359738   0.000000
   21        6.797182   0.000000
   22        6.943208   0.000000
 
  0.4736789E+00  0.5262632E-01  0.0000000E+00  0.1666667E-01
    1       -8.086169   1.000000
    2       -8.049802   1.000000
    3       -7.833671   1.000000
    4       -7.798323   1.000000
    5       -1.557943   1.000000
    6       -1.436089   1.000000
    7       -0.647273   1.000000
    8       -0.565898   1.000000
    9       -0.008904   1.000000
   10        0.286202   1.000000
   11        1.020859   1.000000
   12        1.029850   1.000000
   13        2.284403   1.000000
   14        2.402755   1.000000
   15        2.933852   1.000000
   16        3.004037   1.000000
   17        3.621945   1.000000
   18        3.677152   1.000000
   19        6.358209   0.000000
   20        6.370934   0.000000
   21        6.802721   0.000000
   22        6.954411   0.000000
 
  0.4649053E+00  0.7016842E-01  0.0000000E+00  0.1666667E-01
    1       -8.076265   1.000000
    2       -8.040516   1.000000
    3       -7.826808   1.000000
    4       -7.792005   1.000000
    5       -1.526558   1.000000
    6       -1.405573   1.000000
    7       -0.664650   1.000000
    8       -0.596008   1.000000
    9        0.002872   1.000000
   10        0.295059   1.000000
   11        1.005267   1.000000
   12        1.038455   1.000000
   13        2.283075   1.000000
   14        2.413132   1.000000
   15        2.790283   1.000000
   16        2.864549   1.000000
   17        3.660706   1.000000
   18        3.721186   1.000000
   19        6.353877   0.000000
   20        6.385592   0.000000
   21        6.814548   0.000000
   22        6.971845   0.000000
 
  0.4561316E+00  0.8771053E-01  0.0000000E+00  0.1666667E-01
    1       -8.063829   1.000000
    2       -8.028875   1.000000
    3       -7.818203   1.000000
    4       -7.784119   1.000000
    5       -1.486495   1.000000
    6       -1.366695   1.000000
    7       -0.687182   1.000000
    8       -0.633305   1.000000
    9        0.017645   1.000000
   10        0.305899   1.000000
   11        0.989455   1.000000
   12        1.050098   1.000000
   13        2.280128   1.000000
   14        2.423051   1.000000
   15        2.629478   1.000000
   16        2.709107   1.000000
   17        3.694561   1.000000
   18        3.760145   1.000000
   19        6.345059   0.000000
   20        6.394197   0.000000
   21        6.837157   0.000000
   22        6.995455   0.000000
 
  0.4473579E+00  0.1052526E+00  0.0000000E+00  0.1666667E-01
    1       -8.049073   1.000000
    2       -8.015109   1.000000
    3       -7.808013   1.000000
    4       -7.774826   1.000000
    5       -1.437943   1.000000
    6       -1.319717   1.000000
    7       -0.714797   1.000000
    8       -0.676770   1.000000
    9        0.035156   1.000000
   10        0.318341   1.000000
   11        0.975621   1.000000
   12        1.065019   1.000000
   13        2.274861   1.000000
   14        2.430732   1.000000
   15        2.455236   1.000000
   16        2.541045   1.000000
   17        3.724416   1.000000
   18        3.794677   1.000000
   19        6.330411   0.000000
   20        6.391798   0.000000
   21        6.873765   0.000000
   22        7.026937   0.000000
 
  0.4385842E+00  0.1227947E+00  0.0000000E+00  0.1666667E-01
    1       -8.032283   1.000000
    2       -7.999509   1.000000
    3       -7.796467   1.000000
    4       -7.764352   1.000000
    5       -1.381177   1.000000
    6       -1.265004   1.000000
    7       -0.747227   1.000000
    8       -0.725225   1.000000
    9        0.055052   1.000000
   10        0.331854   1.000000
   11        0.965669   1.000000
   12        1.083322   1.000000
   13        2.266576   1.000000
   14        2.270742   1.000000
   15        2.363124   1.000000
   16        2.434548   1.000000
   17        3.751914   1.000000
   18        3.826168   1.000000
   19        6.308404   0.000000
   20        6.375567   0.000000
   21        6.924863   0.000000
   22        7.064209   0.000000
 
  0.4298105E+00  0.1403368E+00  0.0000000E+00  0.1666667E-01
    1       -8.013779   1.000000
    2       -7.982397   1.000000
    3       -7.783772   1.000000
    4       -7.752937   1.000000
    5       -1.316511   1.000000
    6       -1.202967   1.000000
    7       -0.783940   1.000000
    8       -0.777326   1.000000
    9        0.076965   1.000000
   10        0.345898   1.000000
   11        0.961179   1.000000
   12        1.104959   1.000000
   13        2.078945   1.000000
   14        2.177933   1.000000
   15        2.254723   1.000000
   16        2.433191   1.000000
   17        3.778856   1.000000
   18        3.856198   1.000000
   19        6.279012   0.000000
   20        6.346026   0.000000
   21        6.989626   0.000000
   22        7.120477   0.000000
 
  0.4210368E+00  0.1578789E+00  0.0000000E+00  0.1666667E-01
    1       -7.993927   1.000000
    2       -7.964140   1.000000
    3       -7.770205   1.000000
    4       -7.740863   1.000000
    5       -1.244296   1.000000
    6       -1.134056   1.000000
    7       -0.831664   1.000000
    8       -0.824134   1.000000
    9        0.100455   1.000000
   10        0.359795   1.000000
   11        0.963178   1.000000
   12        1.129686   1.000000
   13        1.882704   1.000000
   14        1.988032   1.000000
   15        2.238934   1.000000
   16        2.425692   1.000000
   17        3.806854   1.000000
   18        3.886252   1.000000
   19        6.242125   0.000000
   20        6.304872   0.000000
   21        7.064241   0.000000
   22        7.173461   0.000000
 
  0.4122632E+00  0.1754211E+00  0.0000000E+00  0.1666667E-01
    1       -7.973125   1.000000
    2       -7.945161   1.000000
    3       -7.756066   1.000000
    4       -7.728437   1.000000
    5       -1.164931   1.000000
    6       -1.058857   1.000000
    7       -0.886786   1.000000
    8       -0.866726   1.000000
    9        0.125007   1.000000
   10        0.372710   1.000000
   11        0.972221   1.000000
   12        1.157029   1.000000
   13        1.684843   1.000000
   14        1.795973   1.000000
   15        2.219159   1.000000
   16        2.411476   1.000000
   17        3.837172   1.000000
   18        3.917565   1.000000
   19        6.198352   0.000000
   20        6.254373   0.000000
   21        7.146953   0.000000
   22        7.214183   0.000000
 
  0.4034895E+00  0.1929632E+00  0.0000000E+00  0.1666667E-01
    1       -7.951835   1.000000
    2       -7.925930   1.000000
    3       -7.741668   1.000000
    4       -7.715993   1.000000
    5       -1.078917   1.000000
    6       -0.978049   1.000000
    7       -0.941231   1.000000
    8       -0.910462   1.000000
    9        0.150023   1.000000
   10        0.383566   1.000000
   11        0.988426   1.000000
   12        1.186270   1.000000
   13        1.488369   1.000000
   14        1.604378   1.000000
   15        2.195683   1.000000
   16        2.390355   1.000000
   17        3.870607   1.000000
   18        3.950989   1.000000
   19        6.148728   0.000000
   20        6.196968   0.000000
   21        7.228799   0.000000
   22        7.273841   0.000000
 
  0.3947158E+00  0.2105053E+00  0.0000000E+00  0.1666667E-01
    1       -7.930564   1.000000
    2       -7.906975   1.000000
    3       -7.727370   1.000000
    4       -7.703894   1.000000
    5       -0.993607   1.000000
    6       -0.986853   1.000000
    7       -0.953954   1.000000
    8       -0.892487   1.000000
    9        0.174706   1.000000
   10        0.390735   1.000000
   11        1.011518   1.000000
   12        1.216306   1.000000
   13        1.296716   1.000000
   14        1.416050   1.000000
   15        2.169292   1.000000
   16        2.362527   1.000000
   17        3.907382   1.000000
   18        3.986900   1.000000
   19        6.094525   0.000000
   20        6.134492   0.000000
   21        7.227323   0.000000
   22        7.322829   0.000000
 
  0.3859421E+00  0.2280474E+00  0.0000000E+00  0.1666667E-01
    1       -7.909856   1.000000
    2       -7.888832   1.000000
    3       -7.713515   1.000000
    4       -7.692504   1.000000
    5       -1.042514   1.000000
    6       -0.995745   1.000000
    7       -0.889478   1.000000
    8       -0.803241   1.000000
    9        0.197971   1.000000
   10        0.391535   1.000000
   11        1.040900   1.000000
   12        1.114503   1.000000
   13        1.234206   1.000000
   14        1.245680   1.000000
   15        2.141343   1.000000
   16        2.328625   1.000000
   17        3.947081   1.000000
   18        4.025101   1.000000
   19        6.037684   0.000000
   20        6.069764   0.000000
   21        7.152054   0.000000
   22        7.391268   0.000000
 
  0.3771684E+00  0.2455895E+00  0.0000000E+00  0.1666667E-01
    1       -7.890288   1.000000
    2       -7.872083   1.000000
    3       -7.700487   1.000000
    4       -7.682223   1.000000
    5       -1.086683   1.000000
    6       -1.034417   1.000000
    7       -0.787806   1.000000
    8       -0.711755   1.000000
    9        0.218090   1.000000
   10        0.380957   1.000000
   11        0.948791   1.000000
   12        1.063005   1.000000
   13        1.075676   1.000000
   14        1.272363   1.000000
   15        2.113896   1.000000
   16        2.289676   1.000000
   17        3.988541   1.000000
   18        4.064715   1.000000
   19        5.980481   0.000000
   20        6.005338   0.000000
   21        7.096348   0.000000
   22        7.523687   0.000000
 
  0.3683947E+00  0.2631316E+00  0.0000000E+00  0.1666667E-01
    1       -7.872460   1.000000
    2       -7.857345   1.000000
    3       -7.688651   1.000000
    4       -7.673426   1.000000
    5       -1.124934   1.000000
    6       -1.068581   1.000000
    7       -0.683366   1.000000
    8       -0.620157   1.000000
    9        0.232234   1.000000
   10        0.350144   1.000000
   11        0.810965   1.000000
   12        0.908314   1.000000
   13        1.114638   1.000000
   14        1.293802   1.000000
   15        2.089748   1.000000
   16        2.247140   1.000000
   17        4.029795   1.000000
   18        4.104089   1.000000
   19        5.925743   0.000000
   20        5.944256   0.000000
   21        7.044841   0.000000
   22        7.530545   0.000000
 
  0.3596211E+00  0.2806737E+00  0.0000000E+00  0.1666667E-01
    1       -7.857000   1.000000
    2       -7.845246   1.000000
    3       -7.678380   1.000000
    4       -7.666505   1.000000
    5       -1.156202   1.000000
    6       -1.096977   1.000000
    7       -0.578880   1.000000
    8       -0.531864   1.000000
    9        0.235882   1.000000
   10        0.289473   1.000000
   11        0.714262   1.000000
   12        0.778861   1.000000
   13        1.156212   1.000000
   14        1.306976   1.000000
   15        2.072284   1.000000
   16        2.202962   1.000000
   17        4.068041   1.000000
   18        4.140734   1.000000
   19        5.876895   0.000001
   20        5.890000   0.000001
   21        7.007226   0.000000
   22        7.556173   0.000000
 
  0.3508474E+00  0.2982158E+00  0.0000000E+00  0.1666667E-01
    1       -7.844551   1.000000
    2       -7.836434   1.000000
    3       -7.670026   1.000000
    4       -7.661794   1.000000
    5       -1.179504   1.000000
    6       -1.118433   1.000000
    7       -0.480002   1.000000
    8       -0.452796   1.000000
    9        0.203805   1.000000
   10        0.224458   1.000000
   11        0.660279   1.000000
   12        0.685889   1.000000
   13        1.198383   1.000000
   14        1.309002   1.000000
   15        2.064944   1.000000
   16        2.159686   1.000000