unknown system                          
   1.00000000000000     
     3.192274    0.000000    0.000000
    -1.596137    2.764590    0.000000
     0.000000    0.000000   13.281549
   Mo   S 
     2     4
Direct
  0.333333  0.666667  0.250000
  0.666667  0.333333  0.750000
  0.333333  0.666667  0.867436
  0.666667  0.333333  0.132564
  0.666666  0.333333  0.367436
  0.333334  0.666667  0.632564
 
   24   24   96
 0.50434E-02 0.52992E-02 0.60340E-02 0.71456E-02 0.84938E-02 0.99755E-02 0.11541E-01 0.13138E-01 0.14678E-01 0.16042E-01
 0.17116E-01 0.17805E-01 0.18042E-01 0.17805E-01 0.17117E-01 0.16042E-01 0.14677E-01 0.13137E-01 0.11539E-01 0.99741E-02
 0.84926E-02 0.71447E-02 0.60336E-02 0.52991E-02 0.52991E-02 0.52992E-02 0.57974E-02 0.67418E-02 0.80318E-02 0.95641E-02
 0.11271E-01 0.13092E-01 0.14929E-01 0.16646E-01 0.18095E-01 0.19147E-01 0.19700E-01 0.19700E-01 0.19147E-01 0.18096E-01
 0.16646E-01 0.14928E-01 0.13090E-01 0.11269E-01 0.95627E-02 0.80307E-02 0.67411E-02 0.57972E-02 0.60336E-02 0.57972E-02
 0.60338E-02 0.67417E-02 0.79129E-02 0.95336E-02 0.11584E-01 0.14007E-01 0.16669E-01 0.19356E-01 0.21810E-01 0.23781E-01
 0.25059E-01 0.25502E-01 0.25060E-01 0.23782E-01 0.21811E-01 0.19355E-01 0.16668E-01 0.14005E-01 0.11582E-01 0.95322E-02
 0.79119E-02 0.67411E-02 0.71447E-02 0.67412E-02 0.67413E-02 0.71451E-02 0.80316E-02 0.95335E-02 0.11795E-01 0.14902E-01
 0.18794E-01 0.23211E-01 0.27709E-01 0.31748E-01 0.34804E-01 0.36452E-01 0.36454E-01 0.34807E-01 0.31751E-01 0.27709E-01
 0.23210E-01 0.18793E-01 0.14900E-01 0.11793E-01 0.95322E-02 0.80307E-02 0.84926E-02 0.80308E-02 0.79121E-02 0.80311E-02
 0.84932E-02 0.95638E-02 0.11584E-01 0.14902E-01 0.19773E-01 0.26187E-01 0.33704E-01 0.41433E-01 0.48201E-01 0.52845E-01
 0.54504E-01 0.52851E-01 0.48207E-01 0.41436E-01 0.33704E-01 0.26185E-01 0.19772E-01 0.14900E-01 0.11582E-01 0.95627E-02
 0.99741E-02 0.95628E-02 0.95324E-02 0.95325E-02 0.95632E-02 0.99748E-02 0.11270E-01 0.14007E-01 0.18795E-01 0.26188E-01
 0.36330E-01 0.48501E-01 0.60937E-01 0.71222E-01 0.77064E-01 0.77069E-01 0.71232E-01 0.60944E-01 0.48502E-01 0.36328E-01
 0.26185E-01 0.18793E-01 0.14005E-01 0.11269E-01 0.11539E-01 0.11269E-01 0.11582E-01 0.11794E-01 0.11582E-01 0.11270E-01
 0.11540E-01 0.13091E-01 0.16669E-01 0.23212E-01 0.33706E-01 0.48504E-01 0.66319E-01 0.83850E-01 0.96772E-01 0.10153    
 0.96780E-01 0.83858E-01 0.66322E-01 0.48502E-01 0.33704E-01 0.23210E-01 0.16668E-01 0.13090E-01 0.13137E-01 0.13090E-01
 0.14005E-01 0.14900E-01 0.14900E-01 0.14005E-01 0.13091E-01 0.13138E-01 0.14929E-01 0.19356E-01 0.27710E-01 0.41438E-01
 0.60946E-01 0.83859E-01 0.10467     0.11707     0.11708     0.10467     0.83858E-01 0.60944E-01 0.41436E-01 0.27709E-01
 0.19355E-01 0.14928E-01 0.14677E-01 0.14928E-01 0.16668E-01 0.18793E-01 0.19771E-01 0.18793E-01 0.16668E-01 0.14929E-01
 0.14677E-01 0.16646E-01 0.21811E-01 0.31752E-01 0.48210E-01 0.71237E-01 0.96789E-01 0.11708     0.12480     0.11708    
 0.96780E-01 0.71232E-01 0.48207E-01 0.31751E-01 0.21811E-01 0.16646E-01 0.16042E-01 0.16646E-01 0.19355E-01 0.23210E-01
 0.26185E-01 0.26184E-01 0.23209E-01 0.19355E-01 0.16646E-01 0.16042E-01 0.18095E-01 0.23782E-01 0.34807E-01 0.52856E-01
 0.77082E-01 0.10155     0.11708     0.11707     0.10153     0.77069E-01 0.52851E-01 0.34807E-01 0.23782E-01 0.18096E-01
 0.17117E-01 0.18096E-01 0.21811E-01 0.27709E-01 0.33703E-01 0.36326E-01 0.33701E-01 0.27708E-01 0.21810E-01 0.18096E-01
 0.17116E-01 0.19147E-01 0.25059E-01 0.36455E-01 0.54512E-01 0.77082E-01 0.96789E-01 0.10467     0.96772E-01 0.77064E-01
 0.54504E-01 0.36454E-01 0.25060E-01 0.19147E-01 0.17805E-01 0.19147E-01 0.23783E-01 0.31752E-01 0.41437E-01 0.48500E-01
 0.48497E-01 0.41431E-01 0.31749E-01 0.23782E-01 0.19147E-01 0.17805E-01 0.19699E-01 0.25502E-01 0.36455E-01 0.52856E-01
 0.71237E-01 0.83859E-01 0.83850E-01 0.71222E-01 0.52845E-01 0.36452E-01 0.25502E-01 0.19700E-01 0.18042E-01 0.19700E-01
 0.25060E-01 0.34809E-01 0.48210E-01 0.60944E-01 0.66316E-01 0.60935E-01 0.48201E-01 0.34805E-01 0.25060E-01 0.19700E-01
 0.18042E-01 0.19699E-01 0.25059E-01 0.34807E-01 0.48210E-01 0.60946E-01 0.66319E-01 0.60937E-01 0.48201E-01 0.34804E-01
 0.25059E-01 0.19700E-01 0.17805E-01 0.19700E-01 0.25503E-01 0.36456E-01 0.52856E-01 0.71236E-01 0.83855E-01 0.83847E-01
 0.71220E-01 0.52846E-01 0.36453E-01 0.25503E-01 0.19700E-01 0.17805E-01 0.19147E-01 0.23782E-01 0.31752E-01 0.41438E-01
 0.48504E-01 0.48501E-01 0.41433E-01 0.31748E-01 0.23781E-01 0.19147E-01 0.17116E-01 0.19147E-01 0.25059E-01 0.36454E-01
 0.54510E-01 0.77077E-01 0.96783E-01 0.10467     0.96766E-01 0.77060E-01 0.54502E-01 0.36453E-01 0.25060E-01 0.19147E-01
 0.17116E-01 0.18095E-01 0.21811E-01 0.27710E-01 0.33706E-01 0.36330E-01 0.33704E-01 0.27709E-01 0.21810E-01 0.18095E-01
 0.16042E-01 0.18095E-01 0.23781E-01 0.34806E-01 0.52851E-01 0.77072E-01 0.10154     0.11707     0.11706     0.10152    
 0.77060E-01 0.52846E-01 0.34805E-01 0.23782E-01 0.18096E-01 0.16042E-01 0.16646E-01 0.19356E-01 0.23212E-01 0.26188E-01
 0.26187E-01 0.23211E-01 0.19356E-01 0.16646E-01 0.14678E-01 0.16646E-01 0.21810E-01 0.31749E-01 0.48204E-01 0.71226E-01
 0.96775E-01 0.11707     0.12479     0.11706     0.96766E-01 0.71220E-01 0.48201E-01 0.31749E-01 0.21810E-01 0.16646E-01
 0.14677E-01 0.14929E-01 0.16669E-01 0.18795E-01 0.19773E-01 0.18794E-01 0.16669E-01 0.14929E-01 0.13138E-01 0.14929E-01
 0.19356E-01 0.27709E-01 0.41433E-01 0.60937E-01 0.83847E-01 0.10466     0.11707     0.11707     0.10467     0.83847E-01
 0.60935E-01 0.41431E-01 0.27708E-01 0.19355E-01 0.14929E-01 0.13138E-01 0.13091E-01 0.14007E-01 0.14902E-01 0.14902E-01
 0.14007E-01 0.13092E-01 0.11541E-01 0.13092E-01 0.16669E-01 0.23211E-01 0.33704E-01 0.48499E-01 0.66313E-01 0.83847E-01
 0.96775E-01 0.10154     0.96783E-01 0.83855E-01 0.66316E-01 0.48497E-01 0.33701E-01 0.23209E-01 0.16668E-01 0.13091E-01
 0.11540E-01 0.11270E-01 0.11584E-01 0.11795E-01 0.11584E-01 0.11271E-01 0.99755E-02 0.11271E-01 0.14007E-01 0.18794E-01
 0.26186E-01 0.36328E-01 0.48499E-01 0.60937E-01 0.71226E-01 0.77072E-01 0.77077E-01 0.71236E-01 0.60944E-01 0.48500E-01
 0.36326E-01 0.26184E-01 0.18793E-01 0.14005E-01 0.11270E-01 0.99748E-02 0.95638E-02 0.95335E-02 0.95336E-02 0.95641E-02
 0.84938E-02 0.95642E-02 0.11584E-01 0.14902E-01 0.19773E-01 0.26186E-01 0.33704E-01 0.41433E-01 0.48204E-01 0.52851E-01
 0.54510E-01 0.52856E-01 0.48210E-01 0.41437E-01 0.33703E-01 0.26185E-01 0.19771E-01 0.14900E-01 0.11582E-01 0.95632E-02
 0.84932E-02 0.80316E-02 0.79129E-02 0.80318E-02 0.71456E-02 0.80320E-02 0.95338E-02 0.11795E-01 0.14902E-01 0.18794E-01
 0.23211E-01 0.27709E-01 0.31749E-01 0.34806E-01 0.36454E-01 0.36456E-01 0.34809E-01 0.31752E-01 0.27709E-01 0.23210E-01
 0.18793E-01 0.14900E-01 0.11794E-01 0.95325E-02 0.80311E-02 0.71451E-02 0.67417E-02 0.67418E-02 0.60340E-02 0.67419E-02
 0.79131E-02 0.95338E-02 0.11584E-01 0.14007E-01 0.16669E-01 0.19356E-01 0.21810E-01 0.23781E-01 0.25059E-01 0.25503E-01
 0.25060E-01 0.23783E-01 0.21811E-01 0.19355E-01 0.16668E-01 0.14005E-01 0.11582E-01 0.95324E-02 0.79121E-02 0.67413E-02
 0.60338E-02 0.57974E-02 0.52992E-02 0.57975E-02 0.67419E-02 0.80320E-02 0.95642E-02 0.11271E-01 0.13092E-01 0.14929E-01
 0.16646E-01 0.18095E-01 0.19147E-01 0.19700E-01 0.19700E-01 0.19147E-01 0.18096E-01 0.16646E-01 0.14928E-01 0.13090E-01
 0.11269E-01 0.95628E-02 0.80308E-02 0.67412E-02 0.57972E-02 0.52992E-02 0.55704E-02 0.58484E-02 0.66855E-02 0.80757E-02
 0.99872E-02 0.12365E-01 0.15114E-01 0.18064E-01 0.20968E-01 0.23558E-01 0.25595E-01 0.26895E-01 0.27343E-01 0.26896E-01
 0.25596E-01 0.23558E-01 0.20968E-01 0.18063E-01 0.15113E-01 0.12363E-01 0.99858E-02 0.80748E-02 0.66850E-02 0.58483E-02
 0.58483E-02 0.58484E-02 0.65161E-02 0.79454E-02 0.10273E-01 0.13603E-01 0.17923E-01 0.23019E-01 0.28452E-01 0.33653E-01
 0.38070E-01 0.41269E-01 0.42948E-01 0.42949E-01 0.41271E-01 0.38073E-01 0.33654E-01 0.28451E-01 0.23018E-01 0.17921E-01
 0.13601E-01 0.10272E-01 0.79446E-02 0.65158E-02 0.66850E-02 0.63034E-02 0.66853E-02 0.79453E-02 0.10399E-01 0.14469E-01
 0.20510E-01 0.28576E-01 0.38211E-01 0.48457E-01 0.58084E-01 0.65911E-01 0.71010E-01 0.72782E-01 0.71015E-01 0.65918E-01
 0.58089E-01 0.48459E-01 0.38211E-01 0.28574E-01 0.20508E-01 0.14467E-01 0.10398E-01 0.79446E-02 0.80748E-02 0.71645E-02
 0.71646E-02 0.80753E-02 0.10273E-01 0.14469E-01 0.21577E-01 0.32384E-01 0.47057E-01 0.64726E-01 0.83450E-01 0.10066    
 0.11381     0.12093     0.12094     0.11383     0.10067     0.83458E-01 0.64728E-01 0.47055E-01 0.32381E-01 0.21574E-01
 0.14467E-01 0.10272E-01 0.99858E-02 0.83469E-02 0.78896E-02 0.83472E-02 0.99866E-02 0.13602E-01 0.20510E-01 0.32384E-01
 0.50685E-01 0.75731E-01 0.10583     0.13713     0.16455     0.18327     0.18991     0.18329     0.16458     0.13714    
 0.10583     0.75730E-01 0.50682E-01 0.32381E-01 0.20508E-01 0.13601E-01 0.12363E-01 0.97701E-02 0.88022E-02 0.88023E-02
 0.97705E-02 0.12364E-01 0.17923E-01 0.28576E-01 0.47058E-01 0.75733E-01 0.11483     0.16079     0.20630     0.24267    
 0.26278     0.26279     0.24270     0.20632     0.16080     0.11483     0.75730E-01 0.47055E-01 0.28574E-01 0.17921E-01
 0.15113E-01 0.11381E-01 0.98737E-02 0.94977E-02 0.98739E-02 0.11381E-01 0.15114E-01 0.23019E-01 0.38212E-01 0.64730E-01
 0.10584     0.16080     0.22237     0.27841     0.31707     0.33079     0.31709     0.27843     0.22238     0.16080    
 0.10583     0.64728E-01 0.38211E-01 0.23018E-01 0.18063E-01 0.13126E-01 0.11087E-01 0.10464E-01 0.10464E-01 0.11087E-01
 0.13126E-01 0.18063E-01 0.28452E-01 0.48459E-01 0.83460E-01 0.13715     0.20633     0.27843     0.33684     0.36895    
 0.36895     0.33685     0.27843     0.20632     0.13714     0.83458E-01 0.48459E-01 0.28451E-01 0.20968E-01 0.14911E-01
 0.12402E-01 0.11674E-01 0.11589E-01 0.11675E-01 0.12402E-01 0.14911E-01 0.20968E-01 0.33653E-01 0.58088E-01 0.10067    
 0.16459     0.24272     0.31711     0.36897     0.38729     0.36895     0.31709     0.24270     0.16458     0.10067    
 0.58089E-01 0.33654E-01 0.23558E-01 0.16601E-01 0.13734E-01 0.13037E-01 0.13174E-01 0.13174E-01 0.13037E-01 0.13734E-01
 0.16601E-01 0.23558E-01 0.38071E-01 0.65916E-01 0.11383     0.18331     0.26283     0.33083     0.36897     0.36895    
 0.33079     0.26279     0.18329     0.11383     0.65918E-01 0.38073E-01 0.25596E-01 0.18042E-01 0.14964E-01 0.14406E-01
 0.15019E-01 0.15457E-01 0.15018E-01 0.14405E-01 0.14964E-01 0.18042E-01 0.25594E-01 0.41269E-01 0.71014E-01 0.12095    
 0.18995     0.26283     0.31711     0.33684     0.31707     0.26278     0.18991     0.12094     0.71015E-01 0.41271E-01
 0.26896E-01 0.19095E-01 0.15961E-01 0.15614E-01 0.16842E-01 0.18188E-01 0.18187E-01 0.16841E-01 0.15614E-01 0.15961E-01
 0.19094E-01 0.26895E-01 0.42947E-01 0.72783E-01 0.12095     0.18331     0.24272     0.27843     0.27841     0.24267    
 0.18327     0.12093     0.72782E-01 0.42949E-01 0.27343E-01 0.19650E-01 0.16611E-01 0.16512E-01 0.18359E-01 0.20851E-01
 0.22047E-01 0.20849E-01 0.18356E-01 0.16511E-01 0.16611E-01 0.19649E-01 0.27342E-01 0.42947E-01 0.71014E-01 0.11383    
 0.16459     0.20633     0.22237     0.20630     0.16455     0.11381     0.71010E-01 0.42948E-01 0.26895E-01 0.19649E-01
 0.16836E-01 0.16989E-01 0.19351E-01 0.22925E-01 0.25743E-01 0.25740E-01 0.22921E-01 0.19348E-01 0.16988E-01 0.16836E-01
 0.19649E-01 0.26895E-01 0.41269E-01 0.65916E-01 0.10067     0.13715     0.16080     0.16079     0.13713     0.10066    
 0.65911E-01 0.41269E-01 0.25595E-01 0.19094E-01 0.16610E-01 0.16989E-01 0.19693E-01 0.24044E-01 0.28364E-01 0.30219E-01
 0.28359E-01 0.24039E-01 0.19691E-01 0.16988E-01 0.16611E-01 0.19094E-01 0.25594E-01 0.38071E-01 0.58088E-01 0.83460E-01
 0.10584     0.11483     0.10583     0.83450E-01 0.58084E-01 0.38070E-01 0.23558E-01 0.18042E-01 0.15961E-01 0.16511E-01
 0.19349E-01 0.24043E-01 0.29302E-01 0.32880E-01 0.32877E-01 0.29297E-01 0.24039E-01 0.19348E-01 0.16511E-01 0.15961E-01
 0.18042E-01 0.23558E-01 0.33653E-01 0.48459E-01 0.64730E-01 0.75733E-01 0.75731E-01 0.64726E-01 0.48457E-01 0.33653E-01
 0.20968E-01 0.16601E-01 0.14964E-01 0.15614E-01 0.18357E-01 0.22923E-01 0.28362E-01 0.32879E-01 0.34638E-01 0.32877E-01
 0.28359E-01 0.22921E-01 0.18356E-01 0.15614E-01 0.14964E-01 0.16601E-01 0.20968E-01 0.28452E-01 0.38212E-01 0.47058E-01
 0.50685E-01 0.47057E-01 0.38211E-01 0.28452E-01 0.18064E-01 0.14912E-01 0.13735E-01 0.14406E-01 0.16842E-01 0.20850E-01
 0.25741E-01 0.30218E-01 0.32879E-01 0.32880E-01 0.30219E-01 0.25740E-01 0.20849E-01 0.16841E-01 0.14405E-01 0.13734E-01
 0.14911E-01 0.18063E-01 0.23019E-01 0.28576E-01 0.32384E-01 0.32384E-01 0.28576E-01 0.23019E-01 0.15114E-01 0.13127E-01
 0.12403E-01 0.13038E-01 0.15020E-01 0.18188E-01 0.22047E-01 0.25741E-01 0.28362E-01 0.29302E-01 0.28364E-01 0.25743E-01
 0.22047E-01 0.18187E-01 0.15018E-01 0.13037E-01 0.12402E-01 0.13126E-01 0.15114E-01 0.17923E-01 0.20510E-01 0.21577E-01
 0.20510E-01 0.17923E-01 0.12365E-01 0.11383E-01 0.11089E-01 0.11676E-01 0.13175E-01 0.15459E-01 0.18188E-01 0.20850E-01
 0.22923E-01 0.24043E-01 0.24044E-01 0.22925E-01 0.20851E-01 0.18188E-01 0.15457E-01 0.13174E-01 0.11675E-01 0.11087E-01
 0.11381E-01 0.12364E-01 0.13602E-01 0.14469E-01 0.14469E-01 0.13603E-01 0.99872E-02 0.97715E-02 0.98752E-02 0.10465E-01
 0.11591E-01 0.13175E-01 0.15020E-01 0.16842E-01 0.18357E-01 0.19349E-01 0.19693E-01 0.19351E-01 0.18359E-01 0.16842E-01
 0.15019E-01 0.13174E-01 0.11589E-01 0.10464E-01 0.98739E-02 0.97705E-02 0.99866E-02 0.10273E-01 0.10399E-01 0.10273E-01
 0.80757E-02 0.83481E-02 0.88036E-02 0.94991E-02 0.10465E-01 0.11676E-01 0.13038E-01 0.14406E-01 0.15614E-01 0.16511E-01
 0.16989E-01 0.16989E-01 0.16512E-01 0.15614E-01 0.14406E-01 0.13037E-01 0.11674E-01 0.10464E-01 0.94977E-02 0.88023E-02
 0.83472E-02 0.80753E-02 0.79453E-02 0.79454E-02 0.66855E-02 0.71652E-02 0.78906E-02 0.88036E-02 0.98752E-02 0.11089E-01
 0.12403E-01 0.13735E-01 0.14964E-01 0.15961E-01 0.16610E-01 0.16836E-01 0.16611E-01 0.15961E-01 0.14964E-01 0.13734E-01
 0.12402E-01 0.11087E-01 0.98737E-02 0.88022E-02 0.78896E-02 0.71646E-02 0.66853E-02 0.65161E-02 0.58484E-02 0.63037E-02
 0.71652E-02 0.83481E-02 0.97715E-02 0.11383E-01 0.13127E-01 0.14912E-01 0.16601E-01 0.18042E-01 0.19094E-01 0.19649E-01
 0.19650E-01 0.19095E-01 0.18042E-01 0.16601E-01 0.14911E-01 0.13126E-01 0.11381E-01 0.97701E-02 0.83469E-02 0.71645E-02
 0.63034E-02 0.58484E-02 0.70786E-02 0.74553E-02 0.87050E-02 0.11152E-01 0.15216E-01 0.21237E-01 0.29250E-01 0.38827E-01
 0.49078E-01 0.58826E-01 0.66855E-01 0.72137E-01 0.73982E-01 0.72141E-01 0.66860E-01 0.58830E-01 0.49079E-01 0.38826E-01
 0.29248E-01 0.21235E-01 0.15214E-01 0.11150E-01 0.87045E-02 0.74551E-02 0.74551E-02 0.74552E-02 0.86282E-02 0.11436E-01
 0.16748E-01 0.25599E-01 0.38677E-01 0.55775E-01 0.75552E-01 0.95763E-01 0.11382     0.12734     0.13458     0.13459    
 0.12736     0.11383     0.95772E-01 0.75555E-01 0.55775E-01 0.38675E-01 0.25597E-01 0.16746E-01 0.11435E-01 0.86278E-02
 0.87045E-02 0.79267E-02 0.87048E-02 0.11436E-01 0.17357E-01 0.28476E-01 0.46901E-01 0.73542E-01 0.10707     0.14386    
 0.17903     0.20783     0.22660     0.23311     0.22662     0.20785     0.17905     0.14387     0.10707     0.73541E-01
 0.46898E-01 0.28474E-01 0.17355E-01 0.11435E-01 0.11150E-01 0.89736E-02 0.89738E-02 0.11151E-01 0.16748E-01 0.28476E-01
 0.50227E-01 0.85282E-01 0.13366     0.19079     0.24872     0.29913     0.33574     0.35485     0.35487     0.33578    
 0.29917     0.24875     0.19080     0.13366     0.85279E-01 0.50223E-01 0.28474E-01 0.16746E-01 0.15214E-01 0.10756E-01
 0.95341E-02 0.10756E-01 0.15216E-01 0.25599E-01 0.46902E-01 0.85283E-01 0.14413     0.21979     0.30140     0.37590    
 0.43347     0.46911     0.48111     0.46914     0.43352     0.37594     0.30142     0.21979     0.14413     0.85279E-01
 0.46898E-01 0.25597E-01 0.21235E-01 0.13421E-01 0.10502E-01 0.10503E-01 0.13422E-01 0.21236E-01 0.38678E-01 0.73544E-01
 0.13367     0.21980     0.32077     0.41835     0.49738     0.55077     0.57723     0.57724     0.55081     0.49742    
 0.41837     0.32078     0.21979     0.13366     0.73541E-01 0.38675E-01 0.29248E-01 0.17027E-01 0.11960E-01 0.10594E-01
 0.11961E-01 0.17028E-01 0.29249E-01 0.55776E-01 0.10707     0.19081     0.30142     0.41837     0.51912     0.59153    
 0.63364     0.64732     0.63366     0.59156     0.51914     0.41837     0.30142     0.19080     0.10707     0.55775E-01
 0.38826E-01 0.21457E-01 0.13905E-01 0.11120E-01 0.11120E-01 0.13906E-01 0.21458E-01 0.38826E-01 0.75555E-01 0.14387    
 0.24875     0.37595     0.49743     0.59155     0.65187     0.68059     0.68059     0.65188     0.59156     0.49742    
 0.37594     0.24875     0.14387     0.75555E-01 0.49079E-01 0.26383E-01 0.16221E-01 0.12047E-01 0.10927E-01 0.12047E-01
 0.16221E-01 0.26383E-01 0.49077E-01 0.95768E-01 0.17905     0.29918     0.43354     0.55084     0.63368     0.68060    
 0.69557     0.68059     0.63366     0.55081     0.43352     0.29917     0.17905     0.95772E-01 0.58830E-01 0.31304E-01
 0.18680E-01 0.13240E-01 0.11256E-01 0.11256E-01 0.13240E-01 0.18680E-01 0.31303E-01 0.58826E-01 0.11382     0.20785    
 0.33579     0.46918     0.57729     0.64736     0.68060     0.68059     0.64732     0.57724     0.46914     0.33578    
 0.20785     0.11383     0.66860E-01 0.35645E-01 0.20988E-01 0.14497E-01 0.11895E-01 0.11226E-01 0.11895E-01 0.14496E-01
 0.20987E-01 0.35643E-01 0.66855E-01 0.12735     0.22662     0.35490     0.48117     0.57729     0.63368     0.65187    
 0.63364     0.57723     0.48111     0.35487     0.22662     0.12736     0.72141E-01 0.38877E-01 0.22855E-01 0.15603E-01
 0.12605E-01 0.11626E-01 0.11625E-01 0.12604E-01 0.15603E-01 0.22854E-01 0.38874E-01 0.72135E-01 0.13458     0.23312    
 0.35490     0.46918     0.55084     0.59155     0.59153     0.55077     0.46911     0.35485     0.23311     0.13459    
 0.73982E-01 0.40600E-01 0.24062E-01 0.16403E-01 0.13191E-01 0.12141E-01 0.11958E-01 0.12140E-01 0.13189E-01 0.16402E-01
 0.24061E-01 0.40597E-01 0.73978E-01 0.13458     0.22662     0.33579     0.43354     0.49743     0.51912     0.49738    
 0.43347     0.33574     0.22660     0.13458     0.72137E-01 0.40599E-01 0.24478E-01 0.16814E-01 0.13552E-01 0.12550E-01
 0.12479E-01 0.12478E-01 0.12548E-01 0.13550E-01 0.16813E-01 0.24478E-01 0.40597E-01 0.72135E-01 0.12735     0.20785    
 0.29918     0.37595     0.41837     0.41835     0.37590     0.29913     0.20783     0.12734     0.66855E-01 0.38875E-01
 0.24062E-01 0.16814E-01 0.13670E-01 0.12760E-01 0.12889E-01 0.13082E-01 0.12887E-01 0.12757E-01 0.13669E-01 0.16813E-01
 0.24061E-01 0.38874E-01 0.66855E-01 0.11382     0.17905     0.24875     0.30142     0.32077     0.30140     0.24872    
 0.17903     0.11382     0.58826E-01 0.35644E-01 0.22855E-01 0.16402E-01 0.13551E-01 0.12759E-01 0.13037E-01 0.13509E-01
 0.13508E-01 0.13035E-01 0.12757E-01 0.13550E-01 0.16402E-01 0.22854E-01 0.35643E-01 0.58826E-01 0.95768E-01 0.14387    
 0.19081     0.21980     0.21979     0.19079     0.14386     0.95763E-01 0.49078E-01 0.31303E-01 0.20988E-01 0.15603E-01
 0.13190E-01 0.12549E-01 0.12888E-01 0.13509E-01 0.13801E-01 0.13508E-01 0.12887E-01 0.12548E-01 0.13189E-01 0.15603E-01
 0.20987E-01 0.31303E-01 0.49077E-01 0.75555E-01 0.10707     0.13367     0.14414     0.13366     0.10707     0.75552E-01
 0.38827E-01 0.26384E-01 0.18681E-01 0.14497E-01 0.12605E-01 0.12141E-01 0.12479E-01 0.13082E-01 0.13509E-01 0.13509E-01
 0.13082E-01 0.12478E-01 0.12140E-01 0.12604E-01 0.14496E-01 0.18680E-01 0.26383E-01 0.38826E-01 0.55776E-01 0.73544E-01
 0.85283E-01 0.85282E-01 0.73542E-01 0.55775E-01 0.29250E-01 0.21459E-01 0.16223E-01 0.13242E-01 0.11896E-01 0.11626E-01
 0.11958E-01 0.12479E-01 0.12888E-01 0.13037E-01 0.12889E-01 0.12479E-01 0.11958E-01 0.11625E-01 0.11895E-01 0.13240E-01
 0.16221E-01 0.21458E-01 0.29249E-01 0.38678E-01 0.46902E-01 0.50227E-01 0.46901E-01 0.38677E-01 0.21237E-01 0.17029E-01
 0.13907E-01 0.12048E-01 0.11257E-01 0.11227E-01 0.11626E-01 0.12141E-01 0.12549E-01 0.12759E-01 0.12760E-01 0.12550E-01
 0.12141E-01 0.11626E-01 0.11226E-01 0.11256E-01 0.12047E-01 0.13906E-01 0.17028E-01 0.21236E-01 0.25599E-01 0.28476E-01
 0.28476E-01 0.25599E-01 0.15216E-01 0.13423E-01 0.11962E-01 0.11121E-01 0.10928E-01 0.11257E-01 0.11896E-01 0.12605E-01
 0.13190E-01 0.13551E-01 0.13670E-01 0.13552E-01 0.13191E-01 0.12605E-01 0.11895E-01 0.11256E-01 0.10927E-01 0.11120E-01
 0.11961E-01 0.13422E-01 0.15216E-01 0.16748E-01 0.17357E-01 0.16748E-01 0.11152E-01 0.10757E-01 0.10504E-01 0.10596E-01
 0.11121E-01 0.12048E-01 0.13242E-01 0.14497E-01 0.15603E-01 0.16402E-01 0.16814E-01 0.16814E-01 0.16403E-01 0.15603E-01
 0.14497E-01 0.13240E-01 0.12047E-01 0.11120E-01 0.10594E-01 0.10503E-01 0.10756E-01 0.11151E-01 0.11436E-01 0.11436E-01
 0.87050E-02 0.89744E-02 0.95353E-02 0.10504E-01 0.11962E-01 0.13907E-01 0.16223E-01 0.18681E-01 0.20988E-01 0.22855E-01
 0.24062E-01 0.24478E-01 0.24062E-01 0.22855E-01 0.20988E-01 0.18680E-01 0.16221E-01 0.13905E-01 0.11960E-01 0.10502E-01
 0.95341E-02 0.89738E-02 0.87048E-02 0.86282E-02 0.74553E-02 0.79270E-02 0.89744E-02 0.10757E-01 0.13423E-01 0.17029E-01
 0.21459E-01 0.26384E-01 0.31303E-01 0.35644E-01 0.38875E-01 0.40599E-01 0.40600E-01 0.38877E-01 0.35645E-01 0.31304E-01
 0.26383E-01 0.21457E-01 0.17027E-01 0.13421E-01 0.10756E-01 0.89736E-02 0.79267E-02 0.74552E-02 0.91841E-02 0.98055E-02
 0.11998E-01 0.16745E-01 0.25620E-01 0.40388E-01 0.62162E-01 0.90541E-01 0.12319     0.15605     0.18420     0.20316    
 0.20984     0.20317     0.18422     0.15606     0.12320     0.90543E-01 0.62161E-01 0.40386E-01 0.25618E-01 0.16744E-01
 0.11997E-01 0.98053E-02 0.98053E-02 0.98054E-02 0.12074E-01 0.17840E-01 0.29733E-01 0.51388E-01 0.85679E-01 0.13243    
 0.18751     0.24390     0.29381     0.33064     0.35009     0.35010     0.33067     0.29384     0.24393     0.18752    
 0.13243     0.85678E-01 0.51385E-01 0.29730E-01 0.17839E-01 0.12073E-01 0.11997E-01 0.10400E-01 0.11998E-01 0.17840E-01
 0.31397E-01 0.58662E-01 0.10574     0.17356     0.25489     0.33744     0.40969     0.46423     0.49766     0.50887    
 0.49769     0.46428     0.40974     0.33748     0.25490     0.17356     0.10574     0.58658E-01 0.31394E-01 0.17839E-01
 0.16744E-01 0.11989E-01 0.11989E-01 0.16745E-01 0.29733E-01 0.58663E-01 0.11375     0.19949     0.30599     0.41338    
 0.50487     0.57297     0.61693     0.63828     0.63830     0.61697     0.57302     0.50492     0.41340     0.30600    
 0.19949     0.11374     0.58658E-01 0.29730E-01 0.25618E-01 0.15233E-01 0.12532E-01 0.15233E-01 0.25619E-01 0.51389E-01
 0.10574     0.19949     0.32495     0.45486     0.56423     0.64394     0.69589     0.72476     0.73399     0.72478    
 0.69593     0.64398     0.56426     0.45487     0.32495     0.19949     0.10574     0.51385E-01 0.40386E-01 0.20926E-01
 0.14114E-01 0.14115E-01 0.20927E-01 0.40388E-01 0.85682E-01 0.17357     0.30600     0.45487     0.58405     0.67787    
 0.73887     0.77464     0.79110     0.79111     0.77467     0.73890     0.67789     0.58406     0.45487     0.30600    
 0.17356     0.85678E-01 0.62161E-01 0.29806E-01 0.17138E-01 0.13903E-01 0.17138E-01 0.29807E-01 0.62162E-01 0.13243    
 0.25491     0.41341     0.56426     0.67789     0.75236     0.79706     0.82061     0.82794     0.82062     0.79708    
 0.75238     0.67789     0.56426     0.41340     0.25490     0.13243     0.90543E-01 0.42207E-01 0.21873E-01 0.14805E-01
 0.14805E-01 0.21874E-01 0.42208E-01 0.90543E-01 0.18752     0.33748     0.50492     0.64399     0.73891     0.79708    
 0.82968     0.84426     0.84426     0.82968     0.79708     0.73890     0.64398     0.50492     0.33748     0.18752    
 0.12320     0.57661E-01 0.28318E-01 0.16828E-01 0.13864E-01 0.16828E-01 0.28318E-01 0.57660E-01 0.12319     0.24392    
 0.40974     0.57304     0.69594     0.77469     0.82063     0.84426     0.85153     0.84426     0.82062     0.77467    
 0.69593     0.57302     0.40974     0.24393     0.15606     0.74657E-01 0.35990E-01 0.19782E-01 0.14033E-01 0.14033E-01
 0.19782E-01 0.35989E-01 0.74654E-01 0.15605     0.29383     0.46428     0.61698     0.72481     0.79113     0.82796    
 0.84426     0.84426     0.82794     0.79110     0.72478     0.61697     0.46428     0.29384     0.18422     0.90809E-01
 0.43870E-01 0.23215E-01 0.14949E-01 0.12760E-01 0.14949E-01 0.23215E-01 0.43868E-01 0.90801E-01 0.18421     0.33066    
 0.49770     0.63833     0.73403     0.79113     0.82063     0.82968     0.82061     0.79110     0.73399     0.63830    
 0.49769     0.33067     0.20317     0.10345     0.50663E-01 0.26477E-01 0.16188E-01 0.12419E-01 0.12419E-01 0.16188E-01
 0.26475E-01 0.50659E-01 0.10344     0.20316     0.35010     0.50890     0.63833     0.72481     0.77469     0.79708    
 0.79706     0.77464     0.72476     0.63828     0.50887     0.35010     0.20984     0.11038     0.55217E-01 0.28951E-01
 0.17329E-01 0.12542E-01 0.11246E-01 0.12541E-01 0.17327E-01 0.28949E-01 0.55213E-01 0.11037     0.20983     0.35010    
 0.49770     0.61698     0.69594     0.73891     0.75236     0.73887     0.69589     0.61693     0.49766     0.35009    
 0.20316     0.11038     0.56812E-01 0.30258E-01 0.18085E-01 0.12783E-01 0.10813E-01 0.10812E-01 0.12781E-01 0.18083E-01
 0.30256E-01 0.56810E-01 0.11037     0.20316     0.33066     0.46428     0.57304     0.64399     0.67789     0.67787    
 0.64394     0.57297     0.46423     0.33064     0.18420     0.10344     0.55214E-01 0.30257E-01 0.18342E-01 0.12941E-01
 0.10713E-01 0.10123E-01 0.10712E-01 0.12939E-01 0.18341E-01 0.30256E-01 0.55213E-01 0.10344     0.18421     0.29383    
 0.40974     0.50492     0.56426     0.58405     0.56423     0.50487     0.40969     0.29381     0.15605     0.90801E-01
 0.50660E-01 0.28950E-01 0.18084E-01 0.12941E-01 0.10706E-01 0.99257E-02 0.99249E-02 0.10705E-01 0.12939E-01 0.18083E-01
 0.28949E-01 0.50659E-01 0.90801E-01 0.15605     0.24392     0.33748     0.41341     0.45487     0.45486     0.41338    
 0.33744     0.24390     0.12319     0.74653E-01 0.43869E-01 0.26476E-01 0.17328E-01 0.12782E-01 0.10713E-01 0.99258E-02
 0.97432E-02 0.99249E-02 0.10712E-01 0.12781E-01 0.17327E-01 0.26475E-01 0.43868E-01 0.74654E-01 0.12319     0.18752    
 0.25491     0.30600     0.32495     0.30599     0.25489     0.18751     0.90541E-01 0.57660E-01 0.35990E-01 0.23216E-01
 0.16189E-01 0.12542E-01 0.10813E-01 0.10124E-01 0.99258E-02 0.99257E-02 0.10123E-01 0.10812E-01 0.12541E-01 0.16188E-01
 0.23215E-01 0.35989E-01 0.57660E-01 0.90543E-01 0.13243     0.17357     0.19949     0.19949     0.17356     0.13243    
 0.62162E-01 0.42209E-01 0.28320E-01 0.19783E-01 0.14951E-01 0.12420E-01 0.11246E-01 0.10813E-01 0.10713E-01 0.10706E-01
 0.10713E-01 0.10813E-01 0.11246E-01 0.12419E-01 0.14949E-01 0.19782E-01 0.28318E-01 0.42208E-01 0.62162E-01 0.85682E-01
 0.10574     0.11375     0.10574     0.85679E-01 0.40388E-01 0.29808E-01 0.21875E-01 0.16830E-01 0.14034E-01 0.12762E-01
 0.12420E-01 0.12542E-01 0.12782E-01 0.12941E-01 0.12941E-01 0.12783E-01 0.12542E-01 0.12419E-01 0.12760E-01 0.14033E-01
 0.16828E-01 0.21874E-01 0.29807E-01 0.40388E-01 0.51389E-01 0.58663E-01 0.58662E-01 0.51388E-01 0.25620E-01 0.20928E-01
 0.17140E-01 0.14807E-01 0.13866E-01 0.14034E-01 0.14951E-01 0.16189E-01 0.17328E-01 0.18084E-01 0.18342E-01 0.18085E-01
 0.17329E-01 0.16188E-01 0.14949E-01 0.14033E-01 0.13864E-01 0.14805E-01 0.17138E-01 0.20927E-01 0.25619E-01 0.29733E-01
 0.31397E-01 0.29733E-01 0.16745E-01 0.15234E-01 0.14116E-01 0.13905E-01 0.14807E-01 0.16830E-01 0.19783E-01 0.23216E-01
 0.26476E-01 0.28950E-01 0.30257E-01 0.30258E-01 0.28951E-01 0.26477E-01 0.23215E-01 0.19782E-01 0.16828E-01 0.14805E-01
 0.13903E-01 0.14115E-01 0.15233E-01 0.16745E-01 0.17840E-01 0.17840E-01 0.11998E-01 0.11990E-01 0.12533E-01 0.14116E-01
 0.17140E-01 0.21875E-01 0.28320E-01 0.35990E-01 0.43869E-01 0.50660E-01 0.55214E-01 0.56812E-01 0.55217E-01 0.50663E-01
 0.43870E-01 0.35990E-01 0.28318E-01 0.21873E-01 0.17138E-01 0.14114E-01 0.12532E-01 0.11989E-01 0.11998E-01 0.12074E-01
 0.98055E-02 0.10400E-01 0.11990E-01 0.15234E-01 0.20928E-01 0.29808E-01 0.42209E-01 0.57660E-01 0.74653E-01 0.90801E-01
 0.10344     0.11038     0.11038     0.10345     0.90809E-01 0.74657E-01 0.57661E-01 0.42207E-01 0.29806E-01 0.20926E-01
 0.15233E-01 0.11989E-01 0.10400E-01 0.98054E-02 0.11323E-01 0.12351E-01 0.16040E-01 0.24371E-01 0.40992E-01 0.70736E-01
 0.11724     0.17956     0.25062     0.31937     0.37516     0.41085     0.42305     0.41087     0.37519     0.31941    
 0.25064     0.17957     0.11724     0.70733E-01 0.40990E-01 0.24369E-01 0.16039E-01 0.12350E-01 0.12350E-01 0.12350E-01
 0.16287E-01 0.26656E-01 0.49092E-01 0.91772E-01 0.16054     0.25163     0.35102     0.44239     0.51462     0.56312    
 0.58717     0.58718     0.56315     0.51467     0.44243     0.35105     0.25164     0.16054     0.91768E-01 0.49089E-01
 0.26654E-01 0.16286E-01 0.16039E-01 0.13243E-01 0.16040E-01 0.26656E-01 0.52413E-01 0.10539     0.19497     0.31394    
 0.43806     0.54469     0.62445     0.67768     0.70775     0.71745     0.70777     0.67771     0.62449     0.54472    
 0.43808     0.31395     0.19497     0.10538     0.52409E-01 0.26654E-01 0.24369E-01 0.15788E-01 0.15788E-01 0.24370E-01
 0.49092E-01 0.10539     0.20808     0.34956     0.49495     0.61343     0.69716     0.75154     0.78376     0.79873    
 0.79874     0.78379     0.75157     0.69719     0.61346     0.49497     0.34956     0.20807     0.10538     0.49089E-01
 0.40990E-01 0.21362E-01 0.16538E-01 0.21362E-01 0.40992E-01 0.91774E-01 0.19498     0.34957     0.51446     0.64704    
 0.73716     0.79391     0.82789     0.84600     0.85170     0.84601     0.82791     0.79393     0.73718     0.64705    
 0.51446     0.34956     0.19497     0.91768E-01 0.70733E-01 0.31994E-01 0.19271E-01 0.19271E-01 0.31996E-01 0.70736E-01
 0.16055     0.31396     0.49497     0.64705     0.74982     0.81304     0.85065     0.87186     0.88148     0.88148    