       N       E                     dE             d eps       ncg     rms          rms(c)
DAV:   1     0.185764437777E+03    0.18576E+03   -0.14950E+04  2640   0.127E+03
DAV:   2    -0.261867481090E+02   -0.21195E+03   -0.20533E+03  3516   0.265E+02
DAV:   3    -0.424199095355E+02   -0.16233E+02   -0.16008E+02  3550   0.701E+01
DAV:   4    -0.428867206661E+02   -0.46681E+00   -0.46581E+00  3634   0.127E+01
DAV:   5    -0.429005419679E+02   -0.13821E-01   -0.13815E-01  3744   0.198E+00
RMM:   6    -0.429008262885E+02   -0.28432E-03   -0.28432E-03  2724   0.296E-01
RMM:   7    -0.429008942912E+02   -0.68003E-04   -0.68531E-04  3840   0.658E-02
RMM:   8    -0.429008963871E+02   -0.20959E-05   -0.34812E-05  2484   0.896E-03
RMM:   9    -0.429008965864E+02   -0.19933E-06   -0.27099E-06  1857   0.359E-03
   1 F= -.42900897E+02 E0= -.42900895E+02  d E =-.307693E-05
