perl: warning: Setting locale failed.
perl: warning: Please check that your locale settings:
	LANGUAGE = (unset),
	LC_ALL = (unset),
	LC_CTYPE = "UTF-8",
	LANG = "en_US.iso885915"
    are supported and installed on your system.
perl: warning: Falling back to the standard locale ("C").
Starting job 28536501 ("jobname") on c16-3 at Fri Nov 8 16:51:25 CET 2019
 running on    4 total cores
 distrk:  each k-point on    4 cores,    1 groups
 distr:  one band on    2 cores,    2 groups
 using from now: INCAR     
 vasp.5.4.4.18Apr17-6-g9f103f2a35 (build Jun 30 2017 11:15:00) complex          
  
 POSCAR found type information on POSCAR  Mo S 
 POSCAR found :  2 types and       6 ions
 scaLAPACK will be used
 LDA part: xc-table for Pade appr. of Perdew
 WARNING: stress and forces are not correct
 POSCAR, INCAR and KPOINTS ok, starting setup
 FFT: planning ...
 WAVECAR not read
 charge-density read from file: unknown                                 
 WARNING: random wavefunctions but no delay for mixing, default for NELMDL
 entering main loop
       N       E                     dE             d eps       ncg     rms          rms(c)
DAV:   1     0.185764437777E+03    0.18576E+03   -0.14950E+04  2640   0.127E+03
DAV:   2    -0.261867481090E+02   -0.21195E+03   -0.20533E+03  3516   0.265E+02
DAV:   3    -0.424199095355E+02   -0.16233E+02   -0.16008E+02  3550   0.701E+01
DAV:   4    -0.428867206661E+02   -0.46681E+00   -0.46581E+00  3634   0.127E+01
DAV:   5    -0.429005419679E+02   -0.13821E-01   -0.13815E-01  3744   0.198E+00
RMM:   6    -0.429008262885E+02   -0.28432E-03   -0.28432E-03  2724   0.296E-01
RMM:   7    -0.429008942912E+02   -0.68003E-04   -0.68531E-04  3840   0.658E-02
RMM:   8    -0.429008963871E+02   -0.20959E-05   -0.34812E-05  2484   0.896E-03
RMM:   9    -0.429008965864E+02   -0.19933E-06   -0.27099E-06  1857   0.359E-03
   1 F= -.42900897E+02 E0= -.42900895E+02  d E =-.307693E-05

Currently Loaded Modulefiles:
  1) Anaconda3/5.1.0       3) vesta/3.3.8           5) intel/2016.1
  2) gnuplot/5.0.4         4) imagemagick/6.7.9-0   6) vasp/5.4.1.Feb16

Job script resource usage:
       JobID  MaxVMSize     MaxRSS 
------------ ---------- ---------- 
28536501.ba+    499280K      5412K 

Job step resource usage:
       JobID    JobName  AllocCPUS  MaxVMSize     MaxRSS    Elapsed ExitCode 
------------ ---------- ---------- ---------- ---------- ---------- -------- 
28536501        jobname          4                         00:00:30      0:0 
28536501.0    pmi_proxy          1   1428420K    237908K   00:00:27      0:0 

Job 28536501 ("jobname") completed on c16-3 at Fri Nov 8 16:51:52 CET 2019
