perl: warning: Setting locale failed.
perl: warning: Please check that your locale settings:
	LANGUAGE = (unset),
	LC_ALL = (unset),
	LC_CTYPE = "UTF-8",
	LANG = "en_US.iso885915"
    are supported and installed on your system.
perl: warning: Falling back to the standard locale ("C").
Starting job 28534885 ("jobname") on c15-30 at Fri Nov 8 15:27:21 CET 2019
 running on    4 total cores
 distrk:  each k-point on    4 cores,    1 groups
 distr:  one band on    2 cores,    2 groups
 using from now: INCAR     
 vasp.5.4.4.18Apr17-6-g9f103f2a35 (build Jun 30 2017 11:15:00) complex          
  
 POSCAR found type information on POSCAR  Mo S 
 POSCAR found :  2 types and       6 ions
 scaLAPACK will be used
 LDA part: xc-table for Pade appr. of Perdew
 WARNING: stress and forces are not correct
 POSCAR, INCAR and KPOINTS ok, starting setup
 FFT: planning ...
 WAVECAR not read
 charge-density read from file: unknown                                 
 WARNING: random wavefunctions but no delay for mixing, default for NELMDL
 entering main loop
       N       E                     dE             d eps       ncg     rms          rms(c)
DAV:   1     0.190417678163E+03    0.19042E+03   -0.14936E+04  6160   0.127E+03
DAV:   2    -0.242924354810E+02   -0.21471E+03   -0.20755E+03  8070   0.270E+02
DAV:   3    -0.409419928749E+02   -0.16650E+02   -0.16424E+02  8378   0.710E+01
DAV:   4    -0.414239302765E+02   -0.48194E+00   -0.48103E+00  8468   0.127E+01
DAV:   5    -0.414394036243E+02   -0.15473E-01   -0.15463E-01  8840   0.202E+00
RMM:   6    -0.414397449096E+02   -0.34129E-03   -0.34129E-03  6374   0.311E-01
RMM:   7    -0.414398275751E+02   -0.82665E-04   -0.83285E-04  8930   0.689E-02
RMM:   8    -0.414398312564E+02   -0.36813E-05   -0.53411E-05  6051   0.105E-02
RMM:   9    -0.414398315209E+02   -0.26454E-06   -0.37199E-06  4495   0.394E-03
   1 F= -.41439832E+02 E0= -.41439830E+02  d E =-.313647E-05

Currently Loaded Modulefiles:
  1) Anaconda3/5.1.0       3) vesta/3.3.8           5) intel/2016.1
  2) gnuplot/5.0.4         4) imagemagick/6.7.9-0   6) vasp/5.4.1.Feb16

Job script resource usage:
       JobID  MaxVMSize     MaxRSS 
------------ ---------- ---------- 
28534885.ba+    499284K      6126K 

Job step resource usage:
       JobID    JobName  AllocCPUS  MaxVMSize     MaxRSS    Elapsed ExitCode 
------------ ---------- ---------- ---------- ---------- ---------- -------- 
28534885        jobname          4                         00:01:04      0:0 
28534885.0    pmi_proxy          1   1637720K    420254K   00:01:03      0:0 

Job 28534885 ("jobname") completed on c15-30 at Fri Nov 8 15:28:24 CET 2019
