<?xml version="1.0" encoding="ISO-8859-1"?>
<modeling>
 <generator>
  <i name="program" type="string">vasp </i>
  <i name="version" type="string">5.4.4.18Apr17-6-g9f103f2a35  </i>
  <i name="subversion" type="string">(build Jun 30 2017 11:15:00) complex            parallel </i>
  <i name="platform" type="string">STALLO_VASP_5.4.4 </i>
  <i name="date" type="string">2019 11 08 </i>
  <i name="time" type="string">16:51:26 </i>
 </generator>
 <incar>
  <i type="string" name="PREC">accurate  ! low/normal/accurate</i>
  <i type="string" name="ALGO"> Fast      ! Algorithm for electronic re</i>
  <i type="int" name="ISPIN">     1</i>
  <i type="int" name="ICHARG">    11</i>
  <i type="int" name="NELMIN">     4</i>
  <i name="EDIFF">      0.00000100</i>
  <i type="int" name="NSW">     0</i>
  <i name="ENCUT">    450.00000000</i>
  <i type="int" name="NEDOS">  2401</i>
  <i type="logical" name="LREAL"> F  </i>
  <i name="EMIN">    -12.00000000</i>
  <i name="EMAX">     12.00000000</i>
  <i type="int" name="ISMEAR">     0</i>
  <i name="SIGMA">      0.20000000</i>
  <i type="logical" name="LWAVE"> F  </i>
  <i type="int" name="LORBIT">    11</i>
  <i type="logical" name="LELF"> T  </i>
  <v type="int" name="KPOINT_BSE">    -1     0     0     0</v>
 </incar>
 <structure name="primitive_cell" >
  <crystal>
   <varray name="basis" >
    <v>       3.19227375       0.00000000       0.00000000 </v>
    <v>      -1.59613687       2.76459035       0.00000000 </v>
    <v>       0.00000000       0.00000000      13.28154876 </v>
   </varray>
   <i name="volume">    117.21403994 </i>
   <varray name="rec_basis" >
    <v>       0.31325634       0.18085862       0.00000000 </v>
    <v>      -0.00000000       0.36171724       0.00000000 </v>
    <v>       0.00000000       0.00000000       0.07529242 </v>
   </varray>
  </crystal>
  <varray name="positions" >
   <v>       0.33333300      -0.33333300       0.25000000 </v>
   <v>      -0.33333300       0.33333300       0.13256427 </v>
   <v>      -0.33333400       0.33333300       0.36743573 </v>
   <v>       0.33333300      -0.33333300      -0.13256427 </v>
   <v>       0.33333400      -0.33333300      -0.36743573 </v>
   <v>      -0.33333300       0.33333300      -0.25000000 </v>
  </varray>
 </structure>
 <varray name="primitive_index" >
  <v type="int" >        1 </v>
  <v type="int" >        4 </v>
  <v type="int" >        5 </v>
  <v type="int" >        3 </v>
  <v type="int" >        6 </v>
  <v type="int" >        2 </v>
 </varray>
 <kpoints>
  <generation param="listgenerated">
   <i name="divisions" type="int">      20 </i>
   <v>       0.00000000       0.00000000       0.00000000 </v>
   <v>       0.50000000       0.00000000       0.00000000 </v>
   <v>       0.33330000       0.33330000       0.00000000 </v>
   <v>       0.00000000       0.00000000       0.00000000 </v>
  </generation>
  <varray name="kpointlist" >
   <v>       0.00000000       0.00000000       0.00000000 </v>
   <v>       0.02631579       0.00000000       0.00000000 </v>
   <v>       0.05263158       0.00000000       0.00000000 </v>
   <v>       0.07894737       0.00000000       0.00000000 </v>
   <v>       0.10526316       0.00000000       0.00000000 </v>
   <v>       0.13157895       0.00000000       0.00000000 </v>
   <v>       0.15789474       0.00000000       0.00000000 </v>
   <v>       0.18421053       0.00000000       0.00000000 </v>
   <v>       0.21052632       0.00000000       0.00000000 </v>
   <v>       0.23684211       0.00000000       0.00000000 </v>
   <v>       0.26315789       0.00000000       0.00000000 </v>
   <v>       0.28947368       0.00000000       0.00000000 </v>
   <v>       0.31578947       0.00000000       0.00000000 </v>
   <v>       0.34210526       0.00000000       0.00000000 </v>
   <v>       0.36842105       0.00000000       0.00000000 </v>
   <v>       0.39473684       0.00000000       0.00000000 </v>
   <v>       0.42105263       0.00000000       0.00000000 </v>
   <v>       0.44736842       0.00000000       0.00000000 </v>
   <v>       0.47368421       0.00000000       0.00000000 </v>
   <v>       0.50000000       0.00000000       0.00000000 </v>
   <v>       0.50000000       0.00000000       0.00000000 </v>
   <v>       0.49122632       0.01754211       0.00000000 </v>
   <v>       0.48245263       0.03508421       0.00000000 </v>
   <v>       0.47367895       0.05262632       0.00000000 </v>
   <v>       0.46490526       0.07016842       0.00000000 </v>
   <v>       0.45613158       0.08771053       0.00000000 </v>
   <v>       0.44735789       0.10525263       0.00000000 </v>
   <v>       0.43858421       0.12279474       0.00000000 </v>
   <v>       0.42981053       0.14033684       0.00000000 </v>
   <v>       0.42103684       0.15787895       0.00000000 </v>
   <v>       0.41226316       0.17542105       0.00000000 </v>
   <v>       0.40348947       0.19296316       0.00000000 </v>
   <v>       0.39471579       0.21050526       0.00000000 </v>
   <v>       0.38594211       0.22804737       0.00000000 </v>
   <v>       0.37716842       0.24558947       0.00000000 </v>
   <v>       0.36839474       0.26313158       0.00000000 </v>
   <v>       0.35962105       0.28067368       0.00000000 </v>
   <v>       0.35084737       0.29821579       0.00000000 </v>
   <v>       0.34207368       0.31575789       0.00000000 </v>
   <v>       0.33330000       0.33330000       0.00000000 </v>
   <v>       0.33330000       0.33330000       0.00000000 </v>
   <v>       0.31575789       0.31575789       0.00000000 </v>
   <v>       0.29821579       0.29821579       0.00000000 </v>
   <v>       0.28067368       0.28067368       0.00000000 </v>
   <v>       0.26313158       0.26313158       0.00000000 </v>
   <v>       0.24558947       0.24558947       0.00000000 </v>
   <v>       0.22804737       0.22804737       0.00000000 </v>
   <v>       0.21050526       0.21050526       0.00000000 </v>
   <v>       0.19296316       0.19296316       0.00000000 </v>
   <v>       0.17542105       0.17542105       0.00000000 </v>
   <v>       0.15787895       0.15787895       0.00000000 </v>
   <v>       0.14033684       0.14033684       0.00000000 </v>
   <v>       0.12279474       0.12279474       0.00000000 </v>
   <v>       0.10525263       0.10525263       0.00000000 </v>
   <v>       0.08771053       0.08771053       0.00000000 </v>
   <v>       0.07016842       0.07016842       0.00000000 </v>
   <v>       0.05262632       0.05262632       0.00000000 </v>
   <v>       0.03508421       0.03508421       0.00000000 </v>
   <v>       0.01754211       0.01754211       0.00000000 </v>
   <v>       0.00000000       0.00000000       0.00000000 </v>
  </varray>
  <varray name="weights" >
   <v>       0.01666667 </v>
   <v>       0.01666667 </v>
   <v>       0.01666667 </v>
   <v>       0.01666667 </v>
   <v>       0.01666667 </v>
   <v>       0.01666667 </v>
   <v>       0.01666667 </v>
   <v>       0.01666667 </v>
   <v>       0.01666667 </v>
   <v>       0.01666667 </v>
   <v>       0.01666667 </v>
   <v>       0.01666667 </v>
   <v>       0.01666667 </v>
   <v>       0.01666667 </v>
   <v>       0.01666667 </v>
   <v>       0.01666667 </v>
   <v>       0.01666667 </v>
   <v>       0.01666667 </v>
   <v>       0.01666667 </v>
   <v>       0.01666667 </v>
   <v>       0.01666667 </v>
   <v>       0.01666667 </v>
   <v>       0.01666667 </v>
   <v>       0.01666667 </v>
   <v>       0.01666667 </v>
   <v>       0.01666667 </v>
   <v>       0.01666667 </v>
   <v>       0.01666667 </v>
   <v>       0.01666667 </v>
   <v>       0.01666667 </v>
   <v>       0.01666667 </v>
   <v>       0.01666667 </v>
   <v>       0.01666667 </v>
   <v>       0.01666667 </v>
   <v>       0.01666667 </v>
   <v>       0.01666667 </v>
   <v>       0.01666667 </v>
   <v>       0.01666667 </v>
   <v>       0.01666667 </v>
   <v>       0.01666667 </v>
   <v>       0.01666667 </v>
   <v>       0.01666667 </v>
   <v>       0.01666667 </v>
   <v>       0.01666667 </v>
   <v>       0.01666667 </v>
   <v>       0.01666667 </v>
   <v>       0.01666667 </v>
   <v>       0.01666667 </v>
   <v>       0.01666667 </v>
   <v>       0.01666667 </v>
   <v>       0.01666667 </v>
   <v>       0.01666667 </v>
   <v>       0.01666667 </v>
   <v>       0.01666667 </v>
   <v>       0.01666667 </v>
   <v>       0.01666667 </v>
   <v>       0.01666667 </v>
   <v>       0.01666667 </v>
   <v>       0.01666667 </v>
   <v>       0.01666667 </v>
  </varray>
 </kpoints>
 <parameters>
  <separator name="general" >
   <i type="string" name="SYSTEM">unknown system</i>
   <i type="logical" name="LCOMPAT"> F  </i>
  </separator>
  <separator name="electronic" >
   <i type="string" name="PREC">accura</i>
   <i name="ENMAX">    450.00000000</i>
   <i name="ENAUG">    345.27800000</i>
   <i name="EDIFF">      0.00000100</i>
   <i type="int" name="IALGO">    68</i>
   <i type="int" name="IWAVPR">    10</i>
   <i type="int" name="NBANDS">    22</i>
   <i name="NELECT">     36.00000000</i>
   <i type="int" name="TURBO">     0</i>
   <i type="int" name="IRESTART">     0</i>
   <i type="int" name="NREBOOT">     0</i>
   <i type="int" name="NMIN">     0</i>
   <i name="EREF">      0.00000000</i>
   <separator name="electronic smearing" >
    <i type="int" name="ISMEAR">     0</i>
    <i name="SIGMA">      0.20000000</i>
    <i name="KSPACING">      0.50000000</i>
    <i type="logical" name="KGAMMA"> T  </i>
   </separator>
   <separator name="electronic projectors" >
    <i type="logical" name="LREAL"> F  </i>
    <v name="ROPT">      0.00000000      0.00000000</v>
    <i type="int" name="LMAXPAW">  -100</i>
    <i type="int" name="LMAXMIX">     2</i>
    <i type="logical" name="NLSPLINE"> F  </i>
   </separator>
   <separator name="electronic startup" >
    <i type="int" name="ISTART">     0</i>
    <i type="int" name="ICHARG">    11</i>
    <i type="int" name="INIWAV">     1</i>
   </separator>
   <separator name="electronic spin" >
    <i type="int" name="ISPIN">     1</i>
    <i type="logical" name="LNONCOLLINEAR"> F  </i>
    <v name="MAGMOM">      1.00000000      1.00000000      1.00000000      1.00000000      1.00000000      1.00000000</v>
    <i name="NUPDOWN">     -1.00000000</i>
    <i type="logical" name="LSORBIT"> F  </i>
    <v name="SAXIS">      0.00000000      0.00000000      1.00000000</v>
    <i type="logical" name="LSPIRAL"> F  </i>
    <v name="QSPIRAL">      0.00000000      0.00000000      0.00000000</v>
    <i type="logical" name="LZEROZ"> F  </i>
   </separator>
   <separator name="electronic exchange-correlation" >
    <i type="logical" name="LASPH"> F  </i>
    <i type="logical" name="LMETAGGA"> F  </i>
   </separator>
   <separator name="electronic convergence" >
    <i type="int" name="NELM">    60</i>
    <i type="int" name="NELMDL">     0</i>
    <i type="int" name="NELMIN">     4</i>
    <i name="ENINI">    450.00000000</i>
    <separator name="electronic convergence detail" >
     <i type="logical" name="LDIAG"> T  </i>
     <i type="logical" name="LSUBROT"> F  </i>
     <i name="WEIMIN">      0.00000000</i>
     <i name="EBREAK">      0.00000001</i>
     <i name="DEPER">      0.30000000</i>
     <i type="int" name="NRMM">     4</i>
     <i name="TIME">      0.40000000</i>
    </separator>
   </separator>
   <separator name="electronic mixer" >
    <i name="AMIX">      0.40000000</i>
    <i name="BMIX">      1.00000000</i>
    <i name="AMIN">      0.10000000</i>
    <i name="AMIX_MAG">      1.60000000</i>
    <i name="BMIX_MAG">      1.00000000</i>
    <separator name="electronic mixer details" >
     <i type="int" name="IMIX">     4</i>
     <i type="logical" name="MIXFIRST"> F  </i>
     <i type="int" name="MAXMIX">   -45</i>
     <i name="WC">    100.00000000</i>
     <i type="int" name="INIMIX">     1</i>
     <i type="int" name="MIXPRE">     1</i>
     <i type="int" name="MREMOVE">     5</i>
    </separator>
   </separator>
   <separator name="electronic dipolcorrection" >
    <i type="logical" name="LDIPOL"> F  </i>
    <i type="logical" name="LMONO"> F  </i>
    <i type="int" name="IDIPOL">     0</i>
    <i name="EPSILON">      1.00000000</i>
    <v name="DIPOL">   -100.00000000   -100.00000000   -100.00000000</v>
    <i name="EFIELD">      0.00000000</i>
   </separator>
  </separator>
  <separator name="grids" >
   <i type="int" name="NGX">    24</i>
   <i type="int" name="NGY">    24</i>
   <i type="int" name="NGZ">    96</i>
   <i type="int" name="NGXF">    48</i>
   <i type="int" name="NGYF">    48</i>
   <i type="int" name="NGZF">   192</i>
   <i type="logical" name="ADDGRID"> F  </i>
  </separator>
  <separator name="ionic" >
   <i type="int" name="NSW">     0</i>
   <i type="int" name="IBRION">    -1</i>
   <i type="int" name="MDALGO">     0</i>
   <i type="int" name="ISIF">     2</i>
   <i name="PSTRESS">      0.00000000</i>
   <i name="EDIFFG">      0.00001000</i>
   <i type="int" name="NFREE">     0</i>
   <i name="POTIM">      0.50000000</i>
   <i name="SMASS">     -3.00000000</i>
   <i name="SCALEE">      1.00000000</i>
  </separator>
  <separator name="ionic md" >
   <i name="TEBEG">      0.00010000</i>
   <i name="TEEND">      0.00010000</i>
   <i type="int" name="NBLOCK">     1</i>
   <i type="int" name="KBLOCK">     1</i>
   <i type="int" name="NPACO">   256</i>
   <i name="APACO">     16.00000000</i>
  </separator>
  <separator name="symmetry" >
   <i type="int" name="ISYM">     2</i>
   <i name="SYMPREC">      0.00001000</i>
  </separator>
  <separator name="dos" >
   <i type="int" name="LORBIT">    11</i>
   <v name="RWIGS">     -1.00000000     -1.00000000</v>
   <i type="int" name="NEDOS">  2401</i>
   <i name="EMIN">    -12.00000000</i>
   <i name="EMAX">     12.00000000</i>
   <i name="EFERMI">      0.00000000</i>
  </separator>
  <separator name="writing" >
   <i type="int" name="NWRITE">     2</i>
   <i type="logical" name="LWAVE"> F  </i>
   <i type="logical" name="LDOWNSAMPLE"> F  </i>
   <i type="logical" name="LCHARG"> T  </i>
   <i type="logical" name="LPARD"> F  </i>
   <i type="logical" name="LVTOT"> F  </i>
   <i type="logical" name="LVHAR"> F  </i>
   <i type="logical" name="LELF"> T  </i>
   <i type="logical" name="LOPTICS"> F  </i>
   <v name="STM">      0.00000000      0.00000000      0.00000000      0.00000000      0.00000000      0.00000000      0.00000000</v>
  </separator>
  <separator name="performance" >
   <i type="int" name="NPAR">     2</i>
   <i type="int" name="NSIM">     4</i>
   <i type="int" name="NBLK">    -1</i>
   <i type="logical" name="LPLANE"> T  </i>
   <i type="logical" name="LSCALAPACK"> T  </i>
   <i type="logical" name="LSCAAWARE"> F  </i>
   <i type="logical" name="LSCALU"> F  </i>
   <i type="logical" name="LASYNC"> F  </i>
   <i type="logical" name="LORBITALREAL"> F  </i>
  </separator>
  <separator name="miscellaneous" >
   <i type="int" name="IDIOT">     3</i>
   <i type="int" name="ISPECIAL">     0</i>
   <i type="logical" name="LMUSIC"> F  </i>
   <v name="POMASS">     95.94000000     32.06600000</v>
   <v name="DARWINR">      0.00000000      0.00000000</v>
   <v name="DARWINV">      1.00000000      1.00000000</v>
   <i type="logical" name="LCORR"> T  </i>
  </separator>
  <i type="logical" name="GGA_COMPAT"> T  </i>
  <i type="logical" name="LBERRY"> F  </i>
  <i type="int" name="ICORELEVEL">     0</i>
  <i type="logical" name="LDAU"> F  </i>
  <i type="int" name="I_CONSTRAINED_M">     0</i>
  <separator name="electronic exchange-correlation" >
   <i type="string" name="GGA">--</i>
   <i type="int" name="VOSKOWN">     0</i>
   <i type="logical" name="LHFCALC"> F  </i>
   <i type="string" name="PRECFOCK"></i>
   <i type="logical" name="LSYMGRAD"> F  </i>
   <i type="logical" name="LHFONE"> F  </i>
   <i type="logical" name="LRHFCALC"> F  </i>
   <i type="logical" name="LTHOMAS"> F  </i>
   <i type="logical" name="LMODELHF"> F  </i>
   <i name="ENCUT4O">     -1.00000000</i>
   <i type="int" name="EXXOEP">     0</i>
   <i type="int" name="FOURORBIT">     0</i>
   <i name="AEXX">      0.00000000</i>
   <i name="HFALPHA">      0.00000000</i>
   <i name="MCALPHA">      0.00000000</i>
   <i name="ALDAX">      1.00000000</i>
   <i name="AGGAX">      1.00000000</i>
   <i name="ALDAC">      1.00000000</i>
   <i name="AGGAC">      1.00000000</i>
   <i type="int" name="NKREDX">     1</i>
   <i type="int" name="NKREDY">     1</i>
   <i type="int" name="NKREDZ">     1</i>
   <i type="logical" name="SHIFTRED"> F  </i>
   <i type="logical" name="ODDONLY"> F  </i>
   <i type="logical" name="EVENONLY"> F  </i>
   <i type="int" name="LMAXFOCK">     0</i>
   <i type="int" name="NMAXFOCKAE">     0</i>
   <i type="logical" name="LFOCKAEDFT"> F  </i>
   <i name="HFSCREEN">      0.00000000</i>
   <i name="HFSCREENC">      0.00000000</i>
   <i type="int" name="NBANDSGWLOW">     0</i>
  </separator>
  <separator name="vdW DFT" >
   <i type="logical" name="LUSE_VDW"> F  </i>
   <i name="Zab_VDW">     -0.84910000</i>
   <i name="PARAM1">      0.12340000</i>
   <i name="PARAM2">      1.00000000</i>
   <i name="PARAM3">      0.00000000</i>
  </separator>
  <separator name="model GW" >
   <i type="int" name="MODEL_GW">     0</i>
   <i name="MODEL_EPS0">     11.72140399</i>
   <i name="MODEL_ALPHA">      1.00000000</i>
  </separator>
  <separator name="linear response parameters" >
   <i type="logical" name="LEPSILON"> F  </i>
   <i type="logical" name="LRPA"> F  </i>
   <i type="logical" name="LNABLA"> F  </i>
   <i type="logical" name="LVEL"> F  </i>
   <i type="int" name="KINTER">     0</i>
   <i name="CSHIFT">      0.10000000</i>
   <i name="OMEGAMAX">     -1.00000000</i>
   <i name="DEG_THRESHOLD">      0.00200000</i>
   <i name="RTIME">     -0.10000000</i>
   <i name="WPLASMAI">      0.00000000</i>
   <v name="DFIELD">      0.00000000      0.00000000      0.00000000</v>
   <v name="WPLASMA">      0.00000000      0.00000000      0.00000000      0.00000000      0.00000000      0.00000000      0.00000000      0.00000000      0.00000000</v>
  </separator>
  <separator name="orbital magnetization" >
   <i type="logical" name="NUCIND"> F  </i>
   <v name="MAGPOS">      0.00000000      0.00000000      0.00000000</v>
   <i type="logical" name="LNICSALL"> T  </i>
   <i type="logical" name="ORBITALMAG"> F  </i>
   <i type="logical" name="LMAGBLOCH"> F  </i>
   <i type="logical" name="LCHIMAG"> F  </i>
   <i type="logical" name="LGAUGE"> T  </i>
   <i type="int" name="MAGATOM">     0</i>
   <v name="MAGDIPOL">      0.00000000      0.00000000      0.00000000</v>
   <v name="AVECCONST">      0.00000000      0.00000000      0.00000000</v>
  </separator>
  <separator name="response functions" >
   <i type="logical" name="LADDER"> F  </i>
   <i type="logical" name="LRPAFORCE"> F  </i>
   <i type="logical" name="LFXC"> F  </i>
   <i type="logical" name="LHARTREE"> T  </i>
   <i type="int" name="IBSE">     0</i>
   <v type="int" name="KPOINT">    -1     0     0     0</v>
   <i type="logical" name="LTCTE"> F  </i>
   <i type="logical" name="LTETE"> F  </i>
   <i type="logical" name="LTRIPLET"> F  </i>
   <i type="logical" name="LFXCEPS"> F  </i>
   <i type="logical" name="LFXHEG"> F  </i>
   <i type="int" name="NATURALO">     2</i>
   <i type="logical" name="L2ORDER"> F  </i>
   <i type="logical" name="LMP2LT"> F  </i>
   <i type="logical" name="LUSEW"> F  </i>
   <i name="ENCUTGW">     -2.00000000</i>
   <i name="ENCUTGWSOFT">     -2.00000000</i>
   <i name="ENCUTLF">     -1.00000000</i>
   <i type="int" name="LMAXMP2">    -1</i>
   <i name="SCISSOR">      0.00000000</i>
   <i type="int" name="NOMEGA">     0</i>
   <i type="int" name="NOMEGAR">     0</i>
   <i type="int" name="NBANDSGW">    -1</i>
   <i type="int" name="NBANDSO">    -1</i>
   <i type="int" name="NBANDSV">    -1</i>
   <i type="int" name="NELM">     1</i>
   <i type="int" name="NELMHF">     1</i>
   <i type="int" name="DIM">     3</i>
   <i type="int" name="ANTIRES">     0</i>
   <i name="OMEGAMAX">    -30.00000000</i>
   <i name="OMEGAMIN">    -30.00000000</i>
   <i name="OMEGATL">   -200.00000000</i>
   <i type="int" name="OMEGAGRID">   140</i>
   <i name="CSHIFT">     -0.10000000</i>
   <i type="logical" name="SELFENERGY"> F  </i>
   <i type="logical" name="LSPECTRAL"> F  </i>
   <i type="logical" name="LSPECTRALGW"> F  </i>
   <i type="logical" name="LSINGLES"> F  </i>
   <i type="logical" name="LFERMIGW"> F  </i>
   <i type="logical" name="ODDONLYGW"> F  </i>
   <i type="logical" name="EVENONLYGW"> F  </i>
   <i type="int" name="NKREDLFX">     1</i>
   <i type="int" name="NKREDLFY">     1</i>
   <i type="int" name="NKREDLFZ">     1</i>
   <i type="int" name="MAXMEM">  2800</i>
   <i type="int" name="TELESCOPE">     0</i>
   <i type="int" name="TAUPAR">     1</i>
   <i type="int" name="OMEGAPAR">    -1</i>
   <i name="LAMBDA">      1.00000000</i>
  </separator>
  <separator name="External order field" >
   <i name="OFIELD_KAPPA">      0.00000000</i>
   <v name="OFIELD_K">      0.00000000      0.00000000      0.00000000</v>
   <i name="OFIELD_Q6_NEAR">      0.00000000</i>
   <i name="OFIELD_Q6_FAR">      0.00000000</i>
   <i name="OFIELD_A">      0.00000000</i>
  </separator>
 </parameters>
 <atominfo>
  <atoms>       6 </atoms>
  <types>       2 </types>
  <array name="atoms" >
   <dimension dim="1">ion</dimension>
   <field type="string">element</field>
   <field type="int">atomtype</field>
   <set>
    <rc><c>Mo</c><c>   1</c></rc>
    <rc><c>Mo</c><c>   1</c></rc>
    <rc><c>S </c><c>   2</c></rc>
    <rc><c>S </c><c>   2</c></rc>
    <rc><c>S </c><c>   2</c></rc>
    <rc><c>S </c><c>   2</c></rc>
   </set>
  </array>
  <array name="atomtypes" >
   <dimension dim="1">type</dimension>
   <field type="int">atomspertype</field>
   <field type="string">element</field>
   <field>mass</field>
   <field>valence</field>
   <field type="string">pseudopotential</field>
   <set>
    <rc><c>   2</c><c>Mo</c><c>     95.94000000</c><c>      6.00000000</c><c> PAW_PBE Mo 08Apr2002                   </c></rc>
    <rc><c>   4</c><c>S </c><c>     32.06600000</c><c>      6.00000000</c><c>  PAW_PBE S 17Jan2003                   </c></rc>
   </set>
  </array>
 </atominfo>
 <structure name="initialpos" >
  <crystal>
   <varray name="basis" >
    <v>       3.19227375       0.00000000       0.00000000 </v>
    <v>      -1.59613687       2.76459035       0.00000000 </v>
    <v>       0.00000000       0.00000000      13.28154876 </v>
   </varray>
   <i name="volume">    117.21403994 </i>
   <varray name="rec_basis" >
    <v>       0.31325634       0.18085862       0.00000000 </v>
    <v>      -0.00000000       0.36171724       0.00000000 </v>
    <v>       0.00000000       0.00000000       0.07529242 </v>
   </varray>
  </crystal>
  <varray name="positions" >
   <v>       0.33333300       0.66666700       0.25000000 </v>
   <v>       0.66666700       0.33333300       0.75000000 </v>
   <v>       0.33333300       0.66666700       0.86743573 </v>
   <v>       0.66666700       0.33333300       0.13256427 </v>
   <v>       0.66666600       0.33333300       0.36743573 </v>
   <v>       0.33333400       0.66666700       0.63256427 </v>
  </varray>
 </structure>
 <calculation>
  <scstep>
   <time name="dav">    1.83    1.85</time>
   <time name="total">    1.92    1.96</time>
   <energy>
    <i name="alphaZ">    101.17761570 </i>
    <i name="ewald">  -1410.01026994 </i>
    <i name="hartreedc">   -328.89637423 </i>
    <i name="XCdc">    -70.28902623 </i>
    <i name="pawpsdc">    945.70495410 </i>
    <i name="pawaedc">   -794.10023629 </i>
    <i name="eentropy">     -0.03103356 </i>
    <i name="bandstr">    199.89858024 </i>
    <i name="atom">   1542.31022798 </i>
    <i name="e_fr_energy">    185.76443778 </i>
    <i name="e_wo_entrp">    185.79547134 </i>
    <i name="e_0_energy">    185.77995456 </i>
   </energy>
  </scstep>
  <scstep>
   <time name="dav">    2.26    2.26</time>
   <time name="total">    2.28    2.28</time>
   <energy>
    <i name="e_fr_energy">    -26.18674811 </i>
    <i name="e_wo_entrp">    -26.17524223 </i>
    <i name="e_0_energy">    -26.18099517 </i>
   </energy>
  </scstep>
  <scstep>
   <time name="dav">    2.25    2.26</time>
   <time name="total">    2.27    2.27</time>
   <energy>
    <i name="e_fr_energy">    -42.41990954 </i>
    <i name="e_wo_entrp">    -42.41990605 </i>
    <i name="e_0_energy">    -42.41990779 </i>
   </energy>
  </scstep>
  <scstep>
   <time name="dav">    2.29    2.29</time>
   <time name="total">    2.30    2.31</time>
   <energy>
    <i name="e_fr_energy">    -42.88672067 </i>
    <i name="e_wo_entrp">    -42.88671766 </i>
    <i name="e_0_energy">    -42.88671916 </i>
   </energy>
  </scstep>
  <scstep>
   <time name="dav">    2.34    2.34</time>
   <time name="total">    2.36    2.36</time>
   <energy>
    <i name="e_fr_energy">    -42.90054197 </i>
    <i name="e_wo_entrp">    -42.90053890 </i>
    <i name="e_0_energy">    -42.90054043 </i>
   </energy>
  </scstep>
  <scstep>
   <time name="diag">    0.42    0.43</time>
   <time name="diis">    1.63    1.63</time>
   <time name="orth">    0.03    0.03</time>
   <time name="total">    2.10    2.10</time>
   <energy>
    <i name="e_fr_energy">    -42.90082629 </i>
    <i name="e_wo_entrp">    -42.90082321 </i>
    <i name="e_0_energy">    -42.90082475 </i>
   </energy>
  </scstep>
  <scstep>
   <time name="diag">    0.42    0.43</time>
   <time name="diis">    2.24    2.24</time>
   <time name="orth">    0.03    0.03</time>
   <time name="total">    2.71    2.71</time>
   <energy>
    <i name="e_fr_energy">    -42.90089429 </i>
    <i name="e_wo_entrp">    -42.90089122 </i>
    <i name="e_0_energy">    -42.90089275 </i>
   </energy>
  </scstep>
  <scstep>
   <time name="diag">    0.42    0.43</time>
   <time name="diis">    1.54    1.54</time>
   <time name="orth">    0.03    0.03</time>
   <time name="total">    2.00    2.01</time>
   <energy>
    <i name="e_fr_energy">    -42.90089639 </i>
    <i name="e_wo_entrp">    -42.90089331 </i>
    <i name="e_0_energy">    -42.90089485 </i>
   </energy>
  </scstep>
  <scstep>
   <time name="diag">    0.42    0.43</time>
   <time name="diis">    1.24    1.24</time>
   <time name="orth">    0.03    0.03</time>
   <time name="total">    1.71    1.71</time>
   <energy>
    <i name="alphaZ">    101.17761570 </i>
    <i name="ewald">  -1410.01026994 </i>
    <i name="hartreedc">   -328.89637423 </i>
    <i name="XCdc">    -70.28902623 </i>
    <i name="pawpsdc">    945.70495410 </i>
    <i name="pawaedc">   -794.10023629 </i>
    <i name="eentropy">     -0.00000308 </i>
    <i name="bandstr">    -28.79778460 </i>
    <i name="atom">   1542.31022798 </i>
    <i name="e_fr_energy">    -42.90089659 </i>
    <i name="e_wo_entrp">    -42.90089351 </i>
    <i name="e_0_energy">    -42.90089505 </i>
   </energy>
  </scstep>
  <structure>
   <crystal>
    <varray name="basis" >
     <v>       3.19227375       0.00000000       0.00000000 </v>
     <v>      -1.59613687       2.76459035       0.00000000 </v>
     <v>       0.00000000       0.00000000      13.28154876 </v>
    </varray>
    <i name="volume">    117.21403994 </i>
    <varray name="rec_basis" >
     <v>       0.31325634       0.18085862       0.00000000 </v>
     <v>      -0.00000000       0.36171724       0.00000000 </v>
     <v>       0.00000000       0.00000000       0.07529242 </v>
    </varray>
   </crystal>
   <varray name="positions" >
    <v>       0.33333300       0.66666700       0.25000000 </v>
    <v>       0.66666700       0.33333300       0.75000000 </v>
    <v>       0.33333300       0.66666700       0.86743573 </v>
    <v>       0.66666700       0.33333300       0.13256427 </v>
    <v>       0.66666600       0.33333300       0.36743573 </v>
    <v>       0.33333400       0.66666700       0.63256427 </v>
   </varray>
  </structure>
  <varray name="forces" >
   <v>       0.00000000      -0.00000000       0.00000000 </v>
   <v>      -0.00000000      -0.00000000       0.00000000 </v>
   <v>      -0.00000000      -0.00000000       0.04102679 </v>
   <v>      -0.00000000       0.00000000      -0.04102679 </v>
   <v>       0.00000000       0.00000000       0.04102679 </v>
   <v>       0.00000000      -0.00000000      -0.04102679 </v>
  </varray>
  <varray name="stress" >
   <v>      -8.98594686      -0.00000000      -0.00000000 </v>
   <v>      -0.00000000      -8.98594806      -0.00000000 </v>
   <v>       0.00000000       0.00000000      42.58576986 </v>
  </varray>
  <energy>
   <i name="e_fr_energy">    -42.90089659 </i>
   <i name="e_wo_entrp">    -42.90089505 </i>
   <i name="e_0_energy">     -0.00000308 </i>
  </energy>
  <time name="totalsc">   21.65   21.97</time>
  <eigenvalues>
   <array>
    <dimension dim="1">band</dimension>
    <dimension dim="2">kpoint</dimension>
    <dimension dim="3">spin</dimension>
    <field>eigene</field>
    <field>occ</field>
    <set>
     <set comment="spin 1">
      <set comment="kpoint 1">
       <r>   -9.9103    1.0000 </r>
       <r>   -9.8110    1.0000 </r>
       <r>   -8.7226    1.0000 </r>
       <r>   -8.5546    1.0000 </r>
       <r>   -1.6499    1.0000 </r>
       <r>   -1.1267    1.0000 </r>
       <r>    1.5616    1.0000 </r>
       <r>    1.5616    1.0000 </r>
       <r>    1.5657    1.0000 </r>
       <r>    1.5657    1.0000 </r>
       <r>    1.8332    1.0000 </r>
       <r>    2.6730    1.0000 </r>
       <r>    2.6731    1.0000 </r>
       <r>    2.6873    1.0000 </r>
       <r>    2.6873    1.0000 </r>
       <r>    3.2209    1.0000 </r>
       <r>    3.8628    1.0000 </r>
       <r>    4.6232    1.0000 </r>
       <r>    6.9496    0.0000 </r>
       <r>    6.9623    0.0000 </r>
       <r>    7.0301    0.0000 </r>
       <r>    7.1605    0.0000 </r>
      </set>
      <set comment="kpoint 2">
       <r>   -9.9005    1.0000 </r>
       <r>   -9.8013    1.0000 </r>
       <r>   -8.7178    1.0000 </r>
       <r>   -8.5503    1.0000 </r>
       <r>   -1.6382    1.0000 </r>
       <r>   -1.1152    1.0000 </r>
       <r>    1.5380    1.0000 </r>
       <r>    1.5423    1.0000 </r>
       <r>    1.5723    1.0000 </r>
       <r>    1.5765    1.0000 </r>
       <r>    1.7996    1.0000 </r>
       <r>    2.6041    1.0000 </r>
       <r>    2.6559    1.0000 </r>
       <r>    2.6703    1.0000 </r>
       <r>    2.7088    1.0000 </r>
       <r>    3.2716    1.0000 </r>
       <r>    3.8625    1.0000 </r>
       <r>    4.6099    1.0000 </r>
       <r>    6.9368    0.0000 </r>
       <r>    6.9506    0.0000 </r>
       <r>    7.0016    0.0000 </r>
       <r>    7.0304    0.0000 </r>
      </set>
      <set comment="kpoint 3">
       <r>   -9.8714    1.0000 </r>
       <r>   -9.7724    1.0000 </r>
       <r>   -8.7032    1.0000 </r>
       <r>   -8.5372    1.0000 </r>
       <r>   -1.6035    1.0000 </r>
       <r>   -1.0809    1.0000 </r>
       <r>    1.4692    1.0000 </r>
       <r>    1.4742    1.0000 </r>
       <r>    1.6041    1.0000 </r>
       <r>    1.6089    1.0000 </r>
       <r>    1.7096    1.0000 </r>
       <r>    2.4456    1.0000 </r>
       <r>    2.6058    1.0000 </r>
       <r>    2.6208    1.0000 </r>
       <r>    2.7612    1.0000 </r>
       <r>    3.3735    1.0000 </r>
       <r>    3.8609    1.0000 </r>
       <r>    4.5692    1.0000 </r>
       <r>    6.8964    0.0000 </r>
       <r>    6.9624    0.0000 </r>
       <r>    7.0538    0.0000 </r>
       <r>    7.0854    0.0000 </r>
      </set>
      <set comment="kpoint 4">
       <r>   -9.8232    1.0000 </r>
       <r>   -9.7246    1.0000 </r>
       <r>   -8.6792    1.0000 </r>
       <r>   -8.5157    1.0000 </r>
       <r>   -1.5470    1.0000 </r>
       <r>   -1.0256    1.0000 </r>
       <r>    1.3602    1.0000 </r>
       <r>    1.3668    1.0000 </r>
       <r>    1.5831    1.0000 </r>
       <r>    1.6565    1.0000 </r>
       <r>    1.6622    1.0000 </r>
       <r>    2.2501    1.0000 </r>
       <r>    2.5268    1.0000 </r>
       <r>    2.5426    1.0000 </r>
       <r>    2.8216    1.0000 </r>
       <r>    3.4685    1.0000 </r>
       <r>    3.8554    1.0000 </r>
       <r>    4.4995    1.0000 </r>
       <r>    6.8266    0.0000 </r>
       <r>    6.8653    0.0000 </r>
       <r>    6.9571    0.0000 </r>
       <r>    7.0489    0.0000 </r>
      </set>
      <set comment="kpoint 5">
       <r>   -9.7568    1.0000 </r>
       <r>   -9.6588    1.0000 </r>
       <r>   -8.6461    1.0000 </r>
       <r>   -8.4861    1.0000 </r>
       <r>   -1.4711    1.0000 </r>
       <r>   -0.9520    1.0000 </r>
       <r>    1.2190    1.0000 </r>
       <r>    1.2282    1.0000 </r>
       <r>    1.4352    1.0000 </r>
       <r>    1.7282    1.0000 </r>
       <r>    1.7352    1.0000 </r>
       <r>    2.0380    1.0000 </r>
       <r>    2.4243    1.0000 </r>
       <r>    2.4412    1.0000 </r>
       <r>    2.8703    1.0000 </r>
       <r>    3.5300    1.0000 </r>
       <r>    3.8418    1.0000 </r>
       <r>    4.3993    1.0000 </r>
       <r>    6.7446    0.0000 </r>
       <r>    6.7983    0.0000 </r>
       <r>    6.8287    0.0000 </r>
       <r>    6.9291    0.0000 </r>
      </set>
      <set comment="kpoint 6">
       <r>   -9.6730    1.0000 </r>
       <r>   -9.5759    1.0000 </r>
       <r>   -8.6044    1.0000 </r>
       <r>   -8.4489    1.0000 </r>
       <r>   -1.3793    1.0000 </r>
       <r>   -0.8646    1.0000 </r>
       <r>    1.0546    1.0000 </r>
       <r>    1.0687    1.0000 </r>
       <r>    1.2745    1.0000 </r>
       <r>    1.8173    1.0000 </r>
       <r>    1.8179    1.0000 </r>
       <r>    1.8265    1.0000 </r>
       <r>    2.3047    1.0000 </r>
       <r>    2.3227    1.0000 </r>
       <r>    2.8947    1.0000 </r>
       <r>    3.5453    1.0000 </r>
       <r>    3.8146    1.0000 </r>
       <r>    4.2690    1.0000 </r>
       <r>    6.5619    0.0000 </r>
       <r>    6.7001    0.0000 </r>
       <r>    6.8311    0.0000 </r>
       <r>    6.9041    0.0000 </r>
      </set>
      <set comment="kpoint 7">
       <r>   -9.5732    1.0000 </r>
       <r>   -9.4773    1.0000 </r>
       <r>   -8.5548    1.0000 </r>
       <r>   -8.4048    1.0000 </r>
       <r>   -1.2768    1.0000 </r>
       <r>   -0.7710    1.0000 </r>
       <r>    0.8773    1.0000 </r>
       <r>    0.9003    1.0000 </r>
       <r>    1.1059    1.0000 </r>
       <r>    1.5917    1.0000 </r>
       <r>    1.9234    1.0000 </r>
       <r>    1.9340    1.0000 </r>
       <r>    2.1739    1.0000 </r>
       <r>    2.1930    1.0000 </r>
       <r>    2.8886    1.0000 </r>
       <r>    3.5125    1.0000 </r>
       <r>    3.7676    1.0000 </r>
       <r>    4.1122    1.0000 </r>
       <r>    6.3876    0.0000 </r>
       <r>    6.6928    0.0000 </r>
       <r>    6.7978    0.0000 </r>
       <r>    6.8434    0.0000 </r>
      </set>
      <set comment="kpoint 8">
       <r>   -9.4589    1.0000 </r>
       <r>   -9.3646    1.0000 </r>
       <r>   -8.4982    1.0000 </r>
       <r>   -8.3545    1.0000 </r>
       <r>   -1.1716    1.0000 </r>
       <r>   -0.6823    1.0000 </r>
       <r>    0.6980    1.0000 </r>
       <r>    0.7370    1.0000 </r>
       <r>    0.9319    1.0000 </r>
       <r>    1.3635    1.0000 </r>
       <r>    2.0373    1.0000 </r>
       <r>    2.0421    1.0000 </r>
       <r>    2.0551    1.0000 </r>
       <r>    2.0575    1.0000 </r>
       <r>    2.8521    1.0000 </r>
       <r>    3.4378    1.0000 </r>
       <r>    3.6968    1.0000 </r>
       <r>    3.9366    1.0000 </r>
       <r>    6.2492    0.0000 </r>
       <r>    6.6967    0.0000 </r>
       <r>    6.7469    0.0000 </r>
       <r>    6.8315    0.0000 </r>
      </set>
      <set comment="kpoint 9">
       <r>   -9.3321    1.0000 </r>
       <r>   -9.2398    1.0000 </r>
       <r>   -8.4356    1.0000 </r>
       <r>   -8.2992    1.0000 </r>
       <r>   -1.0746    1.0000 </r>
       <r>   -0.6160    1.0000 </r>
       <r>    0.5284    1.0000 </r>
       <r>    0.5962    1.0000 </r>
       <r>    0.7542    1.0000 </r>
       <r>    1.1346    1.0000 </r>
       <r>    1.8995    1.0000 </r>
       <r>    1.9207    1.0000 </r>
       <r>    2.1709    1.0000 </r>
       <r>    2.1869    1.0000 </r>
       <r>    2.7905    1.0000 </r>
       <r>    3.3330    1.0000 </r>
       <r>    3.6019    1.0000 </r>
       <r>    3.7549    1.0000 </r>
       <r>    6.1591    0.0000 </r>
       <r>    6.6694    0.0000 </r>
       <r>    6.7099    0.0000 </r>
       <r>    6.7269    0.0000 </r>
      </set>
      <set comment="kpoint 10">
       <r>   -9.1951    1.0000 </r>
       <r>   -9.1054    1.0000 </r>
       <r>   -8.3682    1.0000 </r>
       <r>   -8.2399    1.0000 </r>
       <r>   -1.0009    1.0000 </r>
       <r>   -0.5935    1.0000 </r>
       <r>    0.3817    1.0000 </r>
       <r>    0.4969    1.0000 </r>
       <r>    0.5745    1.0000 </r>
       <r>    0.9071    1.0000 </r>
       <r>    1.7644    1.0000 </r>
       <r>    1.7865    1.0000 </r>
       <r>    2.3061    1.0000 </r>
       <r>    2.3259    1.0000 </r>
       <r>    2.7125    1.0000 </r>
       <r>    3.2109    1.0000 </r>
       <r>    3.4879    1.0000 </r>
       <r>    3.5843    1.0000 </r>
       <r>    6.1190    0.0000 </r>
       <r>    6.5245    0.0000 </r>
       <r>    6.6042    0.0000 </r>
       <r>    6.7735    0.0000 </r>
      </set>
      <set comment="kpoint 11">
       <r>   -9.0507    1.0000 </r>
       <r>   -8.9642    1.0000 </r>
       <r>   -8.2976    1.0000 </r>
       <r>   -8.1782    1.0000 </r>
       <r>   -0.9674    1.0000 </r>
       <r>   -0.6299    1.0000 </r>
       <r>    0.2705    1.0000 </r>
       <r>    0.3948    1.0000 </r>
       <r>    0.4488    1.0000 </r>
       <r>    0.6835    1.0000 </r>
       <r>    1.6351    1.0000 </r>
       <r>    1.6581    1.0000 </r>
       <r>    2.4438    1.0000 </r>
       <r>    2.4680    1.0000 </r>
       <r>    2.6276    1.0000 </r>
       <r>    3.0827    1.0000 </r>
       <r>    3.3643    1.0000 </r>
       <r>    3.4453    1.0000 </r>
       <r>    6.1210    0.0000 </r>
       <r>    6.4710    0.0000 </r>
       <r>    6.5289    0.0000 </r>
       <r>    6.7182    0.0000 </r>
      </set>
      <set comment="kpoint 12">
       <r>   -8.9021    1.0000 </r>
       <r>   -8.8196    1.0000 </r>
       <r>   -8.2254    1.0000 </r>
       <r>   -8.1156    1.0000 </r>
       <r>   -0.9851    1.0000 </r>
       <r>   -0.7196    1.0000 </r>
       <r>    0.1998    1.0000 </r>
       <r>    0.2178    1.0000 </r>
       <r>    0.4396    1.0000 </r>
       <r>    0.4671    1.0000 </r>
       <r>    1.5141    1.0000 </r>
       <r>    1.5378    1.0000 </r>
       <r>    2.5441    1.0000 </r>
       <r>    2.5794    1.0000 </r>
       <r>    2.6088    1.0000 </r>
       <r>    2.9568    1.0000 </r>
       <r>    3.2537    1.0000 </r>
       <r>    3.3479    1.0000 </r>
       <r>    6.1597    0.0000 </r>
       <r>    6.3913    0.0000 </r>
       <r>    6.4639    0.0000 </r>
       <r>    6.7210    0.0000 </r>
      </set>
      <set comment="kpoint 13">
       <r>   -8.7530    1.0000 </r>
       <r>   -8.6753    1.0000 </r>
       <r>   -8.1535    1.0000 </r>
       <r>   -8.0539    1.0000 </r>
       <r>   -1.0504    1.0000 </r>
       <r>   -0.8422    1.0000 </r>
       <r>    0.0472    1.0000 </r>
       <r>    0.1605    1.0000 </r>
       <r>    0.2617    1.0000 </r>
       <r>    0.4433    1.0000 </r>
       <r>    1.4035    1.0000 </r>
       <r>    1.4279    1.0000 </r>
       <r>    2.4683    1.0000 </r>
       <r>    2.7087    1.0000 </r>
       <r>    2.7439    1.0000 </r>
       <r>    2.8387    1.0000 </r>
       <r>    3.1809    1.0000 </r>
       <r>    3.2948    1.0000 </r>
       <r>    6.2288    0.0000 </r>
       <r>    6.3496    0.0000 </r>
       <r>    6.4143    0.0000 </r>
       <r>    6.7565    0.0000 </r>
      </set>
      <set comment="kpoint 14">
       <r>   -8.6078    1.0000 </r>
       <r>   -8.5357    1.0000 </r>
       <r>   -8.0839    1.0000 </r>
       <r>   -7.9951    1.0000 </r>
       <r>   -1.1473    1.0000 </r>
       <r>   -0.9771    1.0000 </r>
       <r>   -0.1130    1.0000 </r>
       <r>    0.0714    1.0000 </r>
       <r>    0.1343    1.0000 </r>
       <r>    0.4387    1.0000 </r>
       <r>    1.3049    1.0000 </r>
       <r>    1.3298    1.0000 </r>
       <r>    2.4042    1.0000 </r>
       <r>    2.7314    1.0000 </r>
       <r>    2.8272    1.0000 </r>
       <r>    2.8689    1.0000 </r>
       <r>    3.1576    1.0000 </r>
       <r>    3.2885    1.0000 </r>
       <r>    6.3183    0.0000 </r>
       <r>    6.3231    0.0000 </r>
       <r>    6.3800    0.0000 </r>
       <r>    6.7753    0.0000 </r>
      </set>
      <set comment="kpoint 15">
       <r>   -8.4712    1.0000 </r>
       <r>   -8.4056    1.0000 </r>
       <r>   -8.0190    1.0000 </r>
       <r>   -7.9413    1.0000 </r>
       <r>   -1.2575    1.0000 </r>
       <r>   -1.1102    1.0000 </r>
       <r>   -0.2584    1.0000 </r>
       <r>   -0.0994    1.0000 </r>
       <r>    0.1067    1.0000 </r>
       <r>    0.4179    1.0000 </r>
       <r>    1.2196    1.0000 </r>
       <r>    1.2449    1.0000 </r>
       <r>    2.3539    1.0000 </r>
       <r>    2.6367    1.0000 </r>
       <r>    2.9316    1.0000 </r>
       <r>    2.9800    1.0000 </r>
       <r>    3.1832    1.0000 </r>
       <r>    3.3241    1.0000 </r>
       <r>    6.3114    0.0000 </r>
       <r>    6.3600    0.0000 </r>
       <r>    6.4205    0.0000 </r>
       <r>    6.8089    0.0000 </r>
      </set>
      <set comment="kpoint 16">
       <r>   -8.3485    1.0000 </r>
       <r>   -8.2899    1.0000 </r>
       <r>   -7.9609    1.0000 </r>
       <r>   -7.8944    1.0000 </r>
       <r>   -1.3658    1.0000 </r>
       <r>   -1.2314    1.0000 </r>
       <r>   -0.3844    1.0000 </r>
       <r>   -0.2464    1.0000 </r>
       <r>    0.0733    1.0000 </r>
       <r>    0.3835    1.0000 </r>
       <r>    1.1485    1.0000 </r>
       <r>    1.1742    1.0000 </r>
       <r>    2.3179    1.0000 </r>
       <r>    2.5553    1.0000 </r>
       <r>    3.0189    1.0000 </r>
       <r>    3.0738    1.0000 </r>
       <r>    3.2476    1.0000 </r>
       <r>    3.3880    1.0000 </r>
       <r>    6.3115    0.0000 </r>
       <r>    6.3508    0.0000 </r>
       <r>    6.5262    0.0000 </r>
       <r>    6.8446    0.0000 </r>
      </set>
      <set comment="kpoint 17">
       <r>   -8.2450    1.0000 </r>
       <r>   -8.1938    1.0000 </r>
       <r>   -7.9121    1.0000 </r>
       <r>   -7.8564    1.0000 </r>
       <r>   -1.4612    1.0000 </r>
       <r>   -1.3336    1.0000 </r>
       <r>   -0.4871    1.0000 </r>
       <r>   -0.3656    1.0000 </r>
       <r>    0.0374    1.0000 </r>
       <r>    0.3437    1.0000 </r>
       <r>    1.0925    1.0000 </r>
       <r>    1.1185    1.0000 </r>
       <r>    2.2956    1.0000 </r>
       <r>    2.4877    1.0000 </r>
       <r>    3.0876    1.0000 </r>
       <r>    3.1482    1.0000 </r>
       <r>    3.3340    1.0000 </r>
       <r>    3.4605    1.0000 </r>
       <r>    6.3191    0.0000 </r>
       <r>    6.3503    0.0000 </r>
       <r>    6.6278    0.0000 </r>
       <r>    6.8782    0.0000 </r>
      </set>
      <set comment="kpoint 18">
       <r>   -8.1660    1.0000 </r>
       <r>   -8.1217    1.0000 </r>
       <r>   -7.8747    1.0000 </r>
       <r>   -7.8287    1.0000 </r>
       <r>   -1.5355    1.0000 </r>
       <r>   -1.4110    1.0000 </r>
       <r>   -0.5630    1.0000 </r>
       <r>   -0.4536    1.0000 </r>
       <r>    0.0053    1.0000 </r>
       <r>    0.3077    1.0000 </r>
       <r>    1.0521    1.0000 </r>
       <r>    1.0783    1.0000 </r>
       <r>    2.2854    1.0000 </r>
       <r>    2.4346    1.0000 </r>
       <r>    3.1367    1.0000 </r>
       <r>    3.2018    1.0000 </r>
       <r>    3.4226    1.0000 </r>
       <r>    3.5220    1.0000 </r>
       <r>    6.3294    0.0000 </r>
       <r>    6.3540    0.0000 </r>
       <r>    6.7144    0.0000 </r>
       <r>    6.9072    0.0000 </r>
      </set>
      <set comment="kpoint 19">
       <r>   -8.1162    1.0000 </r>
       <r>   -8.0771    1.0000 </r>
       <r>   -7.8509    1.0000 </r>
       <r>   -7.8121    1.0000 </r>
       <r>   -1.5825    1.0000 </r>
       <r>   -1.4593    1.0000 </r>
       <r>   -0.6096    1.0000 </r>
       <r>   -0.5076    1.0000 </r>
       <r>   -0.0166    1.0000 </r>
       <r>    0.2830    1.0000 </r>
       <r>    1.0277    1.0000 </r>
       <r>    1.0540    1.0000 </r>
       <r>    2.2838    1.0000 </r>
       <r>    2.3987    1.0000 </r>
       <r>    3.1661    1.0000 </r>
       <r>    3.2341    1.0000 </r>
       <r>    3.4931    1.0000 </r>
       <r>    3.5576    1.0000 </r>
       <r>    6.3379    0.0000 </r>
       <r>    6.3582    0.0000 </r>
       <r>    6.7735    0.0000 </r>
       <r>    6.9275    0.0000 </r>
      </set>
      <set comment="kpoint 20">
       <r>   -8.0992    1.0000 </r>
       <r>   -8.0621    1.0000 </r>
       <r>   -7.8427    1.0000 </r>
       <r>   -7.8067    1.0000 </r>
       <r>   -1.5986    1.0000 </r>
       <r>   -1.4757    1.0000 </r>
       <r>   -0.6253    1.0000 </r>
       <r>   -0.5258    1.0000 </r>
       <r>   -0.0244    1.0000 </r>
       <r>    0.2743    1.0000 </r>
       <r>    1.0195    1.0000 </r>
       <r>    1.0459    1.0000 </r>
       <r>    2.2847    1.0000 </r>
       <r>    2.3854    1.0000 </r>
       <r>    3.1759    1.0000 </r>
       <r>    3.2449    1.0000 </r>
       <r>    3.5232    1.0000 </r>
       <r>    3.5657    1.0000 </r>
       <r>    6.3411    0.0000 </r>
       <r>    6.3599    0.0000 </r>
       <r>    6.7947    0.0000 </r>
       <r>    6.9342    0.0000 </r>
      </set>
      <set comment="kpoint 21">
       <r>   -8.0992    1.0000 </r>
       <r>   -8.0621    1.0000 </r>
       <r>   -7.8427    1.0000 </r>
       <r>   -7.8067    1.0000 </r>
       <r>   -1.5986    1.0000 </r>
       <r>   -1.4757    1.0000 </r>
       <r>   -0.6253    1.0000 </r>
       <r>   -0.5258    1.0000 </r>
       <r>   -0.0244    1.0000 </r>
       <r>    0.2743    1.0000 </r>
       <r>    1.0195    1.0000 </r>
       <r>    1.0459    1.0000 </r>
       <r>    2.2847    1.0000 </r>
       <r>    2.3854    1.0000 </r>
       <r>    3.1759    1.0000 </r>
       <r>    3.2449    1.0000 </r>
       <r>    3.5232    1.0000 </r>
       <r>    3.5657    1.0000 </r>
       <r>    6.3411    0.0000 </r>
       <r>    6.3599    0.0000 </r>
       <r>    6.7947    0.0000 </r>
       <r>    6.9342    0.0000 </r>
      </set>
      <set comment="kpoint 22">
       <r>   -8.0977    1.0000 </r>
       <r>   -8.0607    1.0000 </r>
       <r>   -7.8417    1.0000 </r>
       <r>   -7.8057    1.0000 </r>
       <r>   -1.5940    1.0000 </r>
       <r>   -1.4713    1.0000 </r>
       <r>   -0.6277    1.0000 </r>
       <r>   -0.5303    1.0000 </r>
       <r>   -0.0227    1.0000 </r>
       <r>    0.2756    1.0000 </r>
       <r>    1.0206    1.0000 </r>
       <r>    1.0428    1.0000 </r>
       <r>    2.2848    1.0000 </r>
       <r>    2.3875    1.0000 </r>
       <r>    3.1419    1.0000 </r>
       <r>    3.2101    1.0000 </r>
       <r>    3.5408    1.0000 </r>
       <r>    3.5858    1.0000 </r>
       <r>    6.3450    0.0000 </r>
       <r>    6.3599    0.0000 </r>
       <r>    6.7952    0.0000 </r>
       <r>    6.9381    0.0000 </r>
      </set>
      <set comment="kpoint 23">
       <r>   -8.0934    1.0000 </r>
       <r>   -8.0566    1.0000 </r>
       <r>   -7.8387    1.0000 </r>
       <r>   -7.8029    1.0000 </r>
       <r>   -1.5805    1.0000 </r>
       <r>   -1.4580    1.0000 </r>
       <r>   -0.6350    1.0000 </r>
       <r>   -0.5438    1.0000 </r>
       <r>   -0.0175    1.0000 </r>
       <r>    0.2796    1.0000 </r>
       <r>    1.0240    1.0000 </r>
       <r>    1.0340    1.0000 </r>
       <r>    2.2848    1.0000 </r>
       <r>    2.3937    1.0000 </r>
       <r>    3.0546    1.0000 </r>
       <r>    3.1226    1.0000 </r>
       <r>    3.5796    1.0000 </r>
       <r>    3.6295    1.0000 </r>
       <r>    6.3559    0.0000 </r>
       <r>    6.3597    0.0000 </r>
       <r>    6.7972    0.0000 </r>
       <r>    6.9432    0.0000 </r>
      </set>
      <set comment="kpoint 24">
       <r>   -8.0862    1.0000 </r>
       <r>   -8.0498    1.0000 </r>
       <r>   -7.8337    1.0000 </r>
       <r>   -7.7983    1.0000 </r>
       <r>   -1.5579    1.0000 </r>
       <r>   -1.4361    1.0000 </r>
       <r>   -0.6473    1.0000 </r>
       <r>   -0.5659    1.0000 </r>
       <r>   -0.0089    1.0000 </r>
       <r>    0.2862    1.0000 </r>
       <r>    1.0209    1.0000 </r>
       <r>    1.0299    1.0000 </r>
       <r>    2.2844    1.0000 </r>
       <r>    2.4028    1.0000 </r>
       <r>    2.9339    1.0000 </r>
       <r>    3.0040    1.0000 </r>
       <r>    3.6219    1.0000 </r>
       <r>    3.6772    1.0000 </r>
       <r>    6.3582    0.0000 </r>
       <r>    6.3709    0.0000 </r>
       <r>    6.8027    0.0000 </r>
       <r>    6.9544    0.0000 </r>
      </set>
      <set comment="kpoint 25">
       <r>   -8.0763    1.0000 </r>
       <r>   -8.0405    1.0000 </r>
       <r>   -7.8268    1.0000 </r>
       <r>   -7.7920    1.0000 </r>
       <r>   -1.5266    1.0000 </r>
       <r>   -1.4056    1.0000 </r>
       <r>   -0.6647    1.0000 </r>
       <r>   -0.5960    1.0000 </r>
       <r>    0.0029    1.0000 </r>
       <r>    0.2951    1.0000 </r>
       <r>    1.0053    1.0000 </r>
       <r>    1.0385    1.0000 </r>
       <r>    2.2831    1.0000 </r>
       <r>    2.4131    1.0000 </r>
       <r>    2.7903    1.0000 </r>
       <r>    2.8645    1.0000 </r>
       <r>    3.6607    1.0000 </r>
       <r>    3.7212    1.0000 </r>
       <r>    6.3539    0.0000 </r>
       <r>    6.3856    0.0000 </r>
       <r>    6.8145    0.0000 </r>
       <r>    6.9718    0.0000 </r>
      </set>
      <set comment="kpoint 26">
       <r>   -8.0638    1.0000 </r>
       <r>   -8.0289    1.0000 </r>
       <r>   -7.8182    1.0000 </r>
       <r>   -7.7841    1.0000 </r>
       <r>   -1.4865    1.0000 </r>
       <r>   -1.3667    1.0000 </r>
       <r>   -0.6872    1.0000 </r>
       <r>   -0.6333    1.0000 </r>
       <r>    0.0176    1.0000 </r>
       <r>    0.3059    1.0000 </r>
       <r>    0.9895    1.0000 </r>
       <r>    1.0501    1.0000 </r>
       <r>    2.2801    1.0000 </r>
       <r>    2.4231    1.0000 </r>
       <r>    2.6295    1.0000 </r>
       <r>    2.7091    1.0000 </r>
       <r>    3.6946    1.0000 </r>
       <r>    3.7601    1.0000 </r>
       <r>    6.3451    0.0000 </r>
       <r>    6.3942    0.0000 </r>
       <r>    6.8372    0.0000 </r>
       <r>    6.9955    0.0000 </r>
      </set>
      <set comment="kpoint 27">
       <r>   -8.0491    1.0000 </r>
       <r>   -8.0151    1.0000 </r>
       <r>   -7.8080    1.0000 </r>
       <r>   -7.7748    1.0000 </r>
       <r>   -1.4379    1.0000 </r>
       <r>   -1.3197    1.0000 </r>
       <r>   -0.7148    1.0000 </r>
       <r>   -0.6768    1.0000 </r>
       <r>    0.0352    1.0000 </r>
       <r>    0.3183    1.0000 </r>
       <r>    0.9756    1.0000 </r>
       <r>    1.0650    1.0000 </r>
       <r>    2.2749    1.0000 </r>
       <r>    2.4307    1.0000 </r>
       <r>    2.4552    1.0000 </r>
       <r>    2.5410    1.0000 </r>
       <r>    3.7244    1.0000 </r>
       <r>    3.7947    1.0000 </r>
       <r>    6.3304    0.0000 </r>
       <r>    6.3918    0.0000 </r>
       <r>    6.8738    0.0000 </r>
       <r>    7.0269    0.0000 </r>
      </set>
      <set comment="kpoint 28">
       <r>   -8.0323    1.0000 </r>
       <r>   -7.9995    1.0000 </r>
       <r>   -7.7965    1.0000 </r>
       <r>   -7.7644    1.0000 </r>
       <r>   -1.3812    1.0000 </r>
       <r>   -1.2650    1.0000 </r>
       <r>   -0.7472    1.0000 </r>
       <r>   -0.7252    1.0000 </r>
       <r>    0.0551    1.0000 </r>
       <r>    0.3319    1.0000 </r>
       <r>    0.9657    1.0000 </r>
       <r>    1.0833    1.0000 </r>
       <r>    2.2666    1.0000 </r>
       <r>    2.2707    1.0000 </r>
       <r>    2.3631    1.0000 </r>
       <r>    2.4345    1.0000 </r>
       <r>    3.7519    1.0000 </r>
       <r>    3.8262    1.0000 </r>
       <r>    6.3084    0.0000 </r>
       <r>    6.3756    0.0000 </r>
       <r>    6.9249    0.0000 </r>
       <r>    7.0642    0.0000 </r>
      </set>
      <set comment="kpoint 29">
       <r>   -8.0138    1.0000 </r>
       <r>   -7.9824    1.0000 </r>
       <r>   -7.7838    1.0000 </r>
       <r>   -7.7529    1.0000 </r>
       <r>   -1.3165    1.0000 </r>
       <r>   -1.2030    1.0000 </r>
       <r>   -0.7839    1.0000 </r>
       <r>   -0.7773    1.0000 </r>
       <r>    0.0770    1.0000 </r>
       <r>    0.3459    1.0000 </r>
       <r>    0.9612    1.0000 </r>
       <r>    1.1050    1.0000 </r>
       <r>    2.0789    1.0000 </r>
       <r>    2.1779    1.0000 </r>
       <r>    2.2547    1.0000 </r>
       <r>    2.4332    1.0000 </r>
       <r>    3.7789    1.0000 </r>
       <r>    3.8562    1.0000 </r>
       <r>    6.2790    0.0000 </r>
       <r>    6.3460    0.0000 </r>
       <r>    6.9896    0.0000 </r>
       <r>    7.1205    0.0000 </r>
      </set>
      <set comment="kpoint 30">
       <r>   -7.9939    1.0000 </r>
       <r>   -7.9641    1.0000 </r>
       <r>   -7.7702    1.0000 </r>
       <r>   -7.7409    1.0000 </r>
       <r>   -1.2443    1.0000 </r>
       <r>   -1.1341    1.0000 </r>
       <r>   -0.8317    1.0000 </r>
       <r>   -0.8241    1.0000 </r>
       <r>    0.1005    1.0000 </r>
       <r>    0.3598    1.0000 </r>
       <r>    0.9632    1.0000 </r>
       <r>    1.1297    1.0000 </r>
       <r>    1.8827    1.0000 </r>
       <r>    1.9880    1.0000 </r>
       <r>    2.2389    1.0000 </r>
       <r>    2.4257    1.0000 </r>
       <r>    3.8069    1.0000 </r>
       <r>    3.8863    1.0000 </r>
       <r>    6.2421    0.0000 </r>
       <r>    6.3049    0.0000 </r>
       <r>    7.0642    0.0000 </r>
       <r>    7.1735    0.0000 </r>
      </set>
      <set comment="kpoint 31">
       <r>   -7.9731    1.0000 </r>
       <r>   -7.9452    1.0000 </r>
       <r>   -7.7561    1.0000 </r>
       <r>   -7.7284    1.0000 </r>
       <r>   -1.1649    1.0000 </r>
       <r>   -1.0589    1.0000 </r>
       <r>   -0.8868    1.0000 </r>
       <r>   -0.8667    1.0000 </r>
       <r>    0.1250    1.0000 </r>
       <r>    0.3727    1.0000 </r>
       <r>    0.9722    1.0000 </r>
       <r>    1.1570    1.0000 </r>
       <r>    1.6848    1.0000 </r>
       <r>    1.7960    1.0000 </r>
       <r>    2.2192    1.0000 </r>
       <r>    2.4115    1.0000 </r>
       <r>    3.8372    1.0000 </r>
       <r>    3.9176    1.0000 </r>
       <r>    6.1984    0.0000 </r>
       <r>    6.2544    0.0000 </r>
       <r>    7.1470    0.0000 </r>
       <r>    7.2142    0.0000 </r>
      </set>
      <set comment="kpoint 32">
       <r>   -7.9518    1.0000 </r>
       <r>   -7.9259    1.0000 </r>
       <r>   -7.7417    1.0000 </r>
       <r>   -7.7160    1.0000 </r>
       <r>   -1.0789    1.0000 </r>
       <r>   -0.9780    1.0000 </r>
       <r>   -0.9412    1.0000 </r>
       <r>   -0.9105    1.0000 </r>
       <r>    0.1500    1.0000 </r>
       <r>    0.3836    1.0000 </r>
       <r>    0.9884    1.0000 </r>
       <r>    1.1863    1.0000 </r>
       <r>    1.4884    1.0000 </r>
       <r>    1.6044    1.0000 </r>
       <r>    2.1957    1.0000 </r>
       <r>    2.3904    1.0000 </r>
       <r>    3.8706    1.0000 </r>
       <r>    3.9510    1.0000 </r>
       <r>    6.1487    0.0000 </r>
       <r>    6.1970    0.0000 </r>
       <r>    7.2288    0.0000 </r>
       <r>    7.2738    0.0000 </r>
      </set>
      <set comment="kpoint 33">
       <r>   -7.9306    1.0000 </r>
       <r>   -7.9070    1.0000 </r>
       <r>   -7.7274    1.0000 </r>
       <r>   -7.7039    1.0000 </r>
       <r>   -0.9936    1.0000 </r>
       <r>   -0.9869    1.0000 </r>
       <r>   -0.9540    1.0000 </r>
       <r>   -0.8925    1.0000 </r>
       <r>    0.1747    1.0000 </r>
       <r>    0.3907    1.0000 </r>
       <r>    1.0115    1.0000 </r>
       <r>    1.2163    1.0000 </r>
       <r>    1.2967    1.0000 </r>
       <r>    1.4160    1.0000 </r>
       <r>    2.1693    1.0000 </r>
       <r>    2.3625    1.0000 </r>
       <r>    3.9074    1.0000 </r>
       <r>    3.9869    1.0000 </r>
       <r>    6.0945    0.0000 </r>
       <r>    6.1345    0.0000 </r>
       <r>    7.2273    0.0000 </r>
       <r>    7.3228    0.0000 </r>
      </set>
      <set comment="kpoint 34">
       <r>   -7.9099    1.0000 </r>
       <r>   -7.8888    1.0000 </r>
       <r>   -7.7135    1.0000 </r>
       <r>   -7.6925    1.0000 </r>
       <r>   -1.0425    1.0000 </r>
       <r>   -0.9957    1.0000 </r>
       <r>   -0.8895    1.0000 </r>
       <r>   -0.8032    1.0000 </r>
       <r>    0.1980    1.0000 </r>
       <r>    0.3915    1.0000 </r>
       <r>    1.0409    1.0000 </r>
       <r>    1.1145    1.0000 </r>
       <r>    1.2342    1.0000 </r>
       <r>    1.2457    1.0000 </r>
       <r>    2.1413    1.0000 </r>
       <r>    2.3286    1.0000 </r>
       <r>    3.9471    1.0000 </r>
       <r>    4.0251    1.0000 </r>
       <r>    6.0377    0.0000 </r>
       <r>    6.0698    0.0000 </r>
       <r>    7.1521    0.0000 </r>
       <r>    7.3913    0.0000 </r>
      </set>
      <set comment="kpoint 35">
       <r>   -7.8903    1.0000 </r>
       <r>   -7.8721    1.0000 </r>
       <r>   -7.7005    1.0000 </r>
       <r>   -7.6822    1.0000 </r>
       <r>   -1.0867    1.0000 </r>
       <r>   -1.0344    1.0000 </r>
       <r>   -0.7878    1.0000 </r>
       <r>   -0.7118    1.0000 </r>
       <r>    0.2181    1.0000 </r>
       <r>    0.3810    1.0000 </r>
       <r>    0.9488    1.0000 </r>
       <r>    1.0630    1.0000 </r>
       <r>    1.0757    1.0000 </r>
       <r>    1.2724    1.0000 </r>
       <r>    2.1139    1.0000 </r>
       <r>    2.2897    1.0000 </r>
       <r>    3.9885    1.0000 </r>
       <r>    4.0647    1.0000 </r>
       <r>    5.9805    0.0000 </r>
       <r>    6.0053    0.0000 </r>
       <r>    7.0963    0.0000 </r>
       <r>    7.5237    0.0000 </r>
      </set>
      <set comment="kpoint 36">
       <r>   -7.8725    1.0000 </r>
       <r>   -7.8573    1.0000 </r>
       <r>   -7.6887    1.0000 </r>
       <r>   -7.6734    1.0000 </r>
       <r>   -1.1249    1.0000 </r>
       <r>   -1.0686    1.0000 </r>
       <r>   -0.6834    1.0000 </r>
       <r>   -0.6202    1.0000 </r>
       <r>    0.2322    1.0000 </r>
       <r>    0.3501    1.0000 </r>
       <r>    0.8110    1.0000 </r>
       <r>    0.9083    1.0000 </r>
       <r>    1.1146    1.0000 </r>
       <r>    1.2938    1.0000 </r>
       <r>    2.0897    1.0000 </r>
       <r>    2.2471    1.0000 </r>
       <r>    4.0298    1.0000 </r>
       <r>    4.1041    1.0000 </r>
       <r>    5.9257    0.0000 </r>
       <r>    5.9443    0.0000 </r>
       <r>    7.0448    0.0000 </r>
       <r>    7.5305    0.0000 </r>
      </set>
      <set comment="kpoint 37">
       <r>   -7.8570    1.0000 </r>
       <r>   -7.8452    1.0000 </r>
       <r>   -7.6784    1.0000 </r>
       <r>   -7.6665    1.0000 </r>
       <r>   -1.1562    1.0000 </r>
       <r>   -1.0970    1.0000 </r>
       <r>   -0.5789    1.0000 </r>
       <r>   -0.5319    1.0000 </r>
       <r>    0.2359    1.0000 </r>
       <r>    0.2895    1.0000 </r>
       <r>    0.7143    1.0000 </r>
       <r>    0.7789    1.0000 </r>
       <r>    1.1562    1.0000 </r>
       <r>    1.3070    1.0000 </r>
       <r>    2.0723    1.0000 </r>
       <r>    2.2030    1.0000 </r>
       <r>    4.0680    1.0000 </r>
       <r>    4.1407    1.0000 </r>
       <r>    5.8769    0.0000 </r>
       <r>    5.8900    0.0000 </r>
       <r>    7.0072    0.0000 </r>
       <r>    7.5562    0.0000 </r>
      </set>
      <set comment="kpoint 38">
       <r>   -7.8446    1.0000 </r>
       <r>   -7.8364    1.0000 </r>
       <r>   -7.6700    1.0000 </r>
       <r>   -7.6618    1.0000 </r>
       <r>   -1.1795    1.0000 </r>
       <r>   -1.1184    1.0000 </r>
       <r>   -0.4800    1.0000 </r>
       <r>   -0.4528    1.0000 </r>
       <r>    0.2038    1.0000 </r>
       <r>    0.2245    1.0000 </r>
       <r>    0.6603    1.0000 </r>
       <r>    0.6859    1.0000 </r>
       <r>    1.1984    1.0000 </r>
       <r>    1.3090    1.0000 </r>
       <r>    2.0649    1.0000 </r>
       <r>    2.1597    1.0000 </r>
       <r>    4.0998    1.0000 </r>
       <r>    4.1714    1.0000 </r>
       <r>    5.8379    0.0000 </r>
       <r>    5.8464    0.0000 </r>
       <r>    6.9844    0.0000 </r>
       <r>    7.5860    0.0000 </r>
      </set>
      <set comment="kpoint 39">
       <r>   -7.8358    1.0000 </r>
       <r>   -7.8316    1.0000 </r>
       <r>   -7.6639    1.0000 </r>
       <r>   -7.6596    1.0000 </r>
       <r>   -1.1940    1.0000 </r>
       <r>   -1.1319    1.0000 </r>
       <r>   -0.4003    1.0000 </r>
       <r>   -0.3934    1.0000 </r>
       <r>    0.1211    1.0000 </r>
       <r>    0.2019    1.0000 </r>
       <r>    0.6353    1.0000 </r>
       <r>    0.6365    1.0000 </r>
       <r>    1.2385    1.0000 </r>
       <r>    1.2979    1.0000 </r>
       <r>    2.0703    1.0000 </r>
       <r>    2.1205    1.0000 </r>
       <r>    4.1213    1.0000 </r>
       <r>    4.1924    1.0000 </r>
       <r>    5.8127    0.0000 </r>
       <r>    5.8171    0.0000 </r>
       <r>    6.9698    0.0000 </r>
       <r>    7.5129    0.0000 </r>
      </set>
      <set comment="kpoint 40">
       <r>   -7.8313    1.0000 </r>
       <r>   -7.8312    1.0000 </r>
       <r>   -7.6603    1.0000 </r>
       <r>   -7.6603    1.0000 </r>
       <r>   -1.1990    1.0000 </r>
       <r>   -1.1366    1.0000 </r>
       <r>   -0.3686    1.0000 </r>
       <r>   -0.3686    1.0000 </r>
       <r>    0.0843    1.0000 </r>
       <r>    0.1886    1.0000 </r>
       <r>    0.6258    1.0000 </r>
       <r>    0.6258    1.0000 </r>
       <r>    1.2732    1.0000 </r>
       <r>    1.2735    1.0000 </r>
       <r>    2.0892    1.0000 </r>
       <r>    2.0894    1.0000 </r>
       <r>    4.1291    1.0000 </r>
       <r>    4.2000    1.0000 </r>
       <r>    5.8053    0.0000 </r>
       <r>    5.8053    0.0000 </r>
       <r>    6.9654    0.0000 </r>
       <r>    7.6151    0.0000 </r>
      </set>
      <set comment="kpoint 41">
       <r>   -7.8313    1.0000 </r>
       <r>   -7.8312    1.0000 </r>
       <r>   -7.6603    1.0000 </r>
       <r>   -7.6603    1.0000 </r>
       <r>   -1.1990    1.0000 </r>
       <r>   -1.1366    1.0000 </r>
       <r>   -0.3686    1.0000 </r>
       <r>   -0.3686    1.0000 </r>
       <r>    0.0843    1.0000 </r>
       <r>    0.1886    1.0000 </r>
       <r>    0.6258    1.0000 </r>
       <r>    0.6258    1.0000 </r>
       <r>    1.2732    1.0000 </r>
       <r>    1.2735    1.0000 </r>
       <r>    2.0892    1.0000 </r>
       <r>    2.0894    1.0000 </r>
       <r>    4.1291    1.0000 </r>
       <r>    4.2000    1.0000 </r>
       <r>    5.8053    0.0000 </r>
       <r>    5.8053    0.0000 </r>
       <r>    6.9654    0.0000 </r>
       <r>    7.5268    0.0000 </r>
      </set>
      <set comment="kpoint 42">
       <r>   -7.8466    1.0000 </r>
       <r>   -7.8375    1.0000 </r>
       <r>   -7.6713    1.0000 </r>
       <r>   -7.6618    1.0000 </r>
       <r>   -1.1781    1.0000 </r>
       <r>   -1.1167    1.0000 </r>
       <r>   -0.4834    1.0000 </r>
       <r>   -0.4417    1.0000 </r>
       <r>    0.2101    1.0000 </r>
       <r>    0.2525    1.0000 </r>
       <r>    0.6274    1.0000 </r>
       <r>    0.6783    1.0000 </r>
       <r>    1.1912    1.0000 </r>
       <r>    1.3121    1.0000 </r>
       <r>    2.0683    1.0000 </r>
       <r>    2.1638    1.0000 </r>
       <r>    4.0961    1.0000 </r>
       <r>    4.1667    1.0000 </r>
       <r>    5.8383    0.0000 </r>
       <r>    5.8515    0.0000 </r>
       <r>    6.9788    0.0000 </r>
       <r>    7.5146    0.0000 </r>
      </set>
      <set comment="kpoint 43">
       <r>   -7.8863    1.0000 </r>
       <r>   -7.8674    1.0000 </r>
       <r>   -7.6958    1.0000 </r>
       <r>   -7.6759    1.0000 </r>
       <r>   -1.1138    1.0000 </r>
       <r>   -1.0546    1.0000 </r>
       <r>   -0.6615    1.0000 </r>
       <r>   -0.5861    1.0000 </r>
       <r>    0.3779    1.0000 </r>
       <r>    0.4318    1.0000 </r>
       <r>    0.6517    1.0000 </r>
       <r>    0.7963    1.0000 </r>
       <r>    1.0841    1.0000 </r>
       <r>    1.2967    1.0000 </r>
       <r>    2.1193    1.0000 </r>
       <r>    2.2719    1.0000 </r>
       <r>    4.0045    1.0000 </r>
       <r>    4.0720    1.0000 </r>
       <r>    5.9322    0.0000 </r>
       <r>    5.9723    0.0000 </r>
       <r>    7.0095    0.0000 </r>
       <r>    7.4196    0.0000 </r>
      </set>
      <set comment="kpoint 44">
       <r>   -7.9529    1.0000 </r>
       <r>   -7.9236    1.0000 </r>
       <r>   -7.7343    1.0000 </r>
       <r>   -7.7030    1.0000 </r>
       <r>   -1.0051    1.0000 </r>
       <r>   -0.9488    1.0000 </r>
       <r>   -0.8107    1.0000 </r>
       <r>   -0.7171    1.0000 </r>
       <r>    0.4876    1.0000 </r>
       <r>    0.5644    1.0000 </r>
       <r>    0.7875    1.0000 </r>
       <r>    0.9687    1.0000 </r>
       <r>    0.9722    1.0000 </r>
       <r>    1.2410    1.0000 </r>
       <r>    2.2322    1.0000 </r>
       <r>    2.3975    1.0000 </r>
       <r>    3.8780    1.0000 </r>
       <r>    3.9383    1.0000 </r>
       <r>    6.0484    0.0000 </r>
       <r>    6.1396    0.0000 </r>
       <r>    7.0390    0.0000 </r>
       <r>    7.2202    0.0000 </r>
      </set>
      <set comment="kpoint 45">
       <r>   -8.0467    1.0000 </r>
       <r>   -8.0072    1.0000 </r>
       <r>   -7.7861    1.0000 </r>
       <r>   -7.7428    1.0000 </r>
       <r>   -0.9131    1.0000 </r>
       <r>   -0.8532    1.0000 </r>
       <r>   -0.8067    1.0000 </r>
       <r>   -0.7995    1.0000 </r>
       <r>    0.5637    1.0000 </r>
       <r>    0.5734    1.0000 </r>
       <r>    0.8697    1.0000 </r>
       <r>    1.0424    1.0000 </r>
       <r>    1.1726    1.0000 </r>
       <r>    1.1776    1.0000 </r>
       <r>    2.3818    1.0000 </r>
       <r>    2.5289    1.0000 </r>
       <r>    3.7431    1.0000 </r>
       <r>    3.7918    1.0000 </r>
       <r>    6.1391    0.0000 </r>
       <r>    6.3201    0.0000 </r>
       <r>    6.9979    0.0000 </r>
       <r>    7.0734    0.0000 </r>
      </set>
      <set comment="kpoint 46">
       <r>   -8.1662    1.0000 </r>
       <r>   -8.1167    1.0000 </r>
       <r>   -7.8499    1.0000 </r>
       <r>   -7.7941    1.0000 </r>
       <r>   -0.9667    1.0000 </r>
       <r>   -0.8478    1.0000 </r>
       <r>   -0.6610    1.0000 </r>
       <r>   -0.6091    1.0000 </r>
       <r>    0.5474    1.0000 </r>
       <r>    0.6070    1.0000 </r>
       <r>    0.7869    1.0000 </r>
       <r>    1.1120    1.0000 </r>
       <r>    1.3128    1.0000 </r>
       <r>    1.4020    1.0000 </r>
       <r>    2.5491    1.0000 </r>
       <r>    2.6576    1.0000 </r>
       <r>    3.6193    1.0000 </r>
       <r>    3.6533    1.0000 </r>
       <r>    6.1589    0.0000 </r>
       <r>    6.4864    0.0000 </r>
       <r>    6.8354    0.0000 </r>
       <r>    7.0148    0.0000 </r>
      </set>
      <set comment="kpoint 47">
       <r>   -8.3079    1.0000 </r>
       <r>   -8.2491    1.0000 </r>
       <r>   -7.9234    1.0000 </r>
       <r>   -7.8550    1.0000 </r>
       <r>   -0.9765    1.0000 </r>
       <r>   -0.8413    1.0000 </r>
       <r>   -0.4337    1.0000 </r>
       <r>   -0.3814    1.0000 </r>
       <r>    0.4984    1.0000 </r>
       <r>    0.6168    1.0000 </r>
       <r>    0.7312    1.0000 </r>
       <r>    1.0716    1.0000 </r>
       <r>    1.5761    1.0000 </r>
       <r>    1.6274    1.0000 </r>
       <r>    2.7218    1.0000 </r>
       <r>    2.7770    1.0000 </r>
       <r>    3.5175    1.0000 </r>
       <r>    3.5359    1.0000 </r>
       <r>    6.0903    0.0000 </r>
       <r>    6.6209    0.0000 </r>
       <r>    6.7186    0.0000 </r>
       <r>    6.8240    0.0000 </r>
      </set>
      <set comment="kpoint 48">
       <r>   -8.4668    1.0000 </r>
       <r>   -8.3997    1.0000 </r>
       <r>   -8.0043    1.0000 </r>
       <r>   -7.9233    1.0000 </r>
       <r>   -0.9531    1.0000 </r>
       <r>   -0.7935    1.0000 </r>
       <r>   -0.1790    1.0000 </r>
       <r>   -0.1221    1.0000 </r>
       <r>    0.4333    1.0000 </r>
       <r>    0.5929    1.0000 </r>
       <r>    0.7095    1.0000 </r>
       <r>    1.0592    1.0000 </r>
       <r>    1.8194    1.0000 </r>
       <r>    1.8429    1.0000 </r>
       <r>    2.8817    1.0000 </r>
       <r>    2.8920    1.0000 </r>
       <r>    3.4412    1.0000 </r>
       <r>    3.4464    1.0000 </r>
       <r>    5.9841    0.0000 </r>
       <r>    6.5517    0.0000 </r>
       <r>    6.6584    0.0000 </r>
       <r>    6.7479    0.0000 </r>
      </set>
      <set comment="kpoint 49">
       <r>   -8.6371    1.0000 </r>
       <r>   -8.5629    1.0000 </r>
       <r>   -8.0899    1.0000 </r>
       <r>   -7.9966    1.0000 </r>
       <r>   -0.9138    1.0000 </r>
       <r>   -0.7155    1.0000 </r>
       <r>    0.0899    1.0000 </r>
       <r>    0.1616    1.0000 </r>
       <r>    0.3668    1.0000 </r>
       <r>    0.5422    1.0000 </r>
       <r>    0.7312    1.0000 </r>
       <r>    1.0800    1.0000 </r>
       <r>    2.0257    1.0000 </r>
       <r>    2.0338    1.0000 </r>
       <r>    2.9675    1.0000 </r>
       <r>    3.0534    1.0000 </r>
       <r>    3.3900    1.0000 </r>
       <r>    3.3928    1.0000 </r>
       <r>    5.8995    0.0000 </r>
       <r>    6.4182    0.0000 </r>
       <r>    6.6108    0.0000 </r>
       <r>    6.7884    0.0000 </r>
      </set>
      <set comment="kpoint 50">
       <r>   -8.8131    1.0000 </r>
       <r>   -8.7329    1.0000 </r>
       <r>   -8.1776    1.0000 </r>
       <r>   -8.0725    1.0000 </r>
       <r>   -0.8838    1.0000 </r>
       <r>   -0.6259    1.0000 </r>
       <r>    0.3241    1.0000 </r>
       <r>    0.3476    1.0000 </r>
       <r>    0.4596    1.0000 </r>
       <r>    0.4828    1.0000 </r>
       <r>    0.8154    1.0000 </r>
       <r>    1.1392    1.0000 </r>
       <r>    2.1709    1.0000 </r>
       <r>    2.1759    1.0000 </r>
       <r>    3.0315    1.0000 </r>
       <r>    3.2013    1.0000 </r>
       <r>    3.3799    1.0000 </r>
       <r>    3.3816    1.0000 </r>
       <r>    5.8670    0.0000 </r>
       <r>    6.3532    0.0000 </r>
       <r>    6.5665    0.0000 </r>
       <r>    6.7199    0.0000 </r>
      </set>
      <set comment="kpoint 51">
       <r>   -8.9890    1.0000 </r>
       <r>   -8.9038    1.0000 </r>
       <r>   -8.2649    1.0000 </r>
       <r>   -8.1487    1.0000 </r>
       <r>   -0.8908    1.0000 </r>
       <r>   -0.5542    1.0000 </r>
       <r>    0.3349    1.0000 </r>
       <r>    0.4471    1.0000 </r>
       <r>    0.5558    1.0000 </r>
       <r>    0.7573    1.0000 </r>
       <r>    0.9916    1.0000 </r>
       <r>    1.2434    1.0000 </r>
       <r>    2.2312    1.0000 </r>
       <r>    2.2396    1.0000 </r>
       <r>    3.0721    1.0000 </r>
       <r>    3.3316    1.0000 </r>
       <r>    3.4213    1.0000 </r>
       <r>    3.4384    1.0000 </r>
       <r>    5.8917    0.0000 </r>
       <r>    6.3737    0.0000 </r>
       <r>    6.5389    0.0000 </r>
       <r>    6.6857    0.0000 </r>
      </set>
      <set comment="kpoint 52">
       <r>   -9.1596    1.0000 </r>
       <r>   -9.0705    1.0000 </r>
       <r>   -8.3495    1.0000 </r>
       <r>   -8.2230    1.0000 </r>
       <r>   -0.9491    1.0000 </r>
       <r>   -0.5355    1.0000 </r>
       <r>    0.4152    1.0000 </r>
       <r>    0.4739    1.0000 </r>
       <r>    0.7140    1.0000 </r>
       <r>    1.0338    1.0000 </r>
       <r>    1.2492    1.0000 </r>
       <r>    1.4034    1.0000 </r>
       <r>    2.2057    1.0000 </r>
       <r>    2.2167    1.0000 </r>
       <r>    3.0890    1.0000 </r>
       <r>    3.4409    1.0000 </r>
       <r>    3.5079    1.0000 </r>
       <r>    3.5715    1.0000 </r>
       <r>    5.9649    0.0000 </r>
       <r>    6.4292    0.0000 </r>
       <r>    6.5601    0.0000 </r>
       <r>    6.5926    0.0000 </r>
      </set>
      <set comment="kpoint 53">
       <r>   -9.3204    1.0000 </r>
       <r>   -9.2282    1.0000 </r>
       <r>   -8.4292    1.0000 </r>
       <r>   -8.2933    1.0000 </r>
       <r>   -1.0496    1.0000 </r>
       <r>   -0.5832    1.0000 </r>
       <r>    0.5564    1.0000 </r>
       <r>    0.5789    1.0000 </r>
       <r>    0.8600    1.0000 </r>
       <r>    1.2738    1.0000 </r>
       <r>    1.5367    1.0000 </r>
       <r>    1.6214    1.0000 </r>
       <r>    2.1208    1.0000 </r>
       <r>    2.1316    1.0000 </r>
       <r>    3.0828    1.0000 </r>
       <r>    3.5252    1.0000 </r>
       <r>    3.6143    1.0000 </r>
       <r>    3.7557    1.0000 </r>
       <r>    6.0772    0.0000 </r>
       <r>    6.5361    0.0000 </r>
       <r>    6.5694    0.0000 </r>
       <r>    6.7854    0.0000 </r>
      </set>
      <set comment="kpoint 54">
       <r>   -9.4673    1.0000 </r>
       <r>   -9.3729    1.0000 </r>
       <r>   -8.5021    1.0000 </r>
       <r>   -8.3579    1.0000 </r>
       <r>   -1.1721    1.0000 </r>
       <r>   -0.6769    1.0000 </r>
       <r>    0.7369    1.0000 </r>
       <r>    0.7420    1.0000 </r>
       <r>    1.0136    1.0000 </r>
       <r>    1.4917    1.0000 </r>
       <r>    1.8185    1.0000 </r>
       <r>    1.8687    1.0000 </r>
       <r>    2.0076    1.0000 </r>
       <r>    2.0168    1.0000 </r>
       <r>    3.0551    1.0000 </r>
       <r>    3.5800    1.0000 </r>
       <r>    3.7113    1.0000 </r>
       <r>    3.9585    1.0000 </r>
       <r>    6.2323    0.0000 </r>
       <r>    6.5669    0.0000 </r>
       <r>    6.6615    0.0000 </r>
       <r>    6.7582    0.0000 </r>
      </set>
      <set comment="kpoint 55">
       <r>   -9.5971    1.0000 </r>
       <r>   -9.5009    1.0000 </r>
       <r>   -8.5666    1.0000 </r>
       <r>   -8.4152    1.0000 </r>
       <r>   -1.2984    1.0000 </r>
       <r>   -0.7886    1.0000 </r>
       <r>    0.9327    1.0000 </r>
       <r>    0.9344    1.0000 </r>
       <r>    1.1782    1.0000 </r>
       <r>    1.7093    1.0000 </r>
       <r>    1.8889    1.0000 </r>
       <r>    1.8963    1.0000 </r>
       <r>    2.0742    1.0000 </r>
       <r>    2.1074    1.0000 </r>
       <r>    3.0078    1.0000 </r>
       <r>    3.5994    1.0000 </r>
       <r>    3.7832    1.0000 </r>
       <r>    4.1538    1.0000 </r>
       <r>    6.4111    0.0000 </r>
       <r>    6.6060    0.0000 </r>
       <r>    6.7726    0.0000 </r>
       <r>    6.7918    0.0000 </r>
      </set>
      <set comment="kpoint 56">
       <r>   -9.7070    1.0000 </r>
       <r>   -9.6095    1.0000 </r>
       <r>   -8.6212    1.0000 </r>
       <r>   -8.4639    1.0000 </r>
       <r>   -1.4153    1.0000 </r>
       <r>   -0.8983    1.0000 </r>
       <r>    1.1256    1.0000 </r>
       <r>    1.1296    1.0000 </r>
       <r>    1.3499    1.0000 </r>
       <r>    1.7791    1.0000 </r>
       <r>    1.7851    1.0000 </r>
       <r>    1.9349    1.0000 </r>
       <r>    2.2907    1.0000 </r>
       <r>    2.3145    1.0000 </r>
       <r>    2.9434    1.0000 </r>
       <r>    3.5777    1.0000 </r>
       <r>    3.8278    1.0000 </r>
       <r>    4.3236    1.0000 </r>
       <r>    6.6274    0.0000 </r>
       <r>    6.7696    0.0000 </r>
       <r>    6.7978    0.0000 </r>
       <r>    6.9254    0.0000 </r>
      </set>
      <set comment="kpoint 57">
       <r>   -9.7946    1.0000 </r>
       <r>   -9.6963    1.0000 </r>
       <r>   -8.6649    1.0000 </r>
       <r>   -8.5030    1.0000 </r>
       <r>   -1.5140    1.0000 </r>
       <r>   -0.9933    1.0000 </r>
       <r>    1.3004    1.0000 </r>
       <r>    1.3050    1.0000 </r>
       <r>    1.5200    1.0000 </r>
       <r>    1.6871    1.0000 </r>
       <r>    1.6921    1.0000 </r>
       <r>    2.1656    1.0000 </r>
       <r>    2.4601    1.0000 </r>
       <r>    2.4786    1.0000 </r>
       <r>    2.8661    1.0000 </r>
       <r>    3.5117    1.0000 </r>
       <r>    3.8506    1.0000 </r>
       <r>    4.4572    1.0000 </r>
       <r>    6.7746    0.0000 </r>
       <r>    6.8334    0.0000 </r>
       <r>    6.9322    0.0000 </r>
       <r>    7.0363    0.0000 </r>
      </set>
      <set comment="kpoint 58">
       <r>   -9.8585    1.0000 </r>
       <r>   -9.7596    1.0000 </r>
       <r>   -8.6968    1.0000 </r>
       <r>   -8.5315    1.0000 </r>
       <r>   -1.5882    1.0000 </r>
       <r>   -1.0660    1.0000 </r>
       <r>    1.4401    1.0000 </r>
       <r>    1.4445    1.0000 </r>
       <r>    1.6183    1.0000 </r>
       <r>    1.6227    1.0000 </r>
       <r>    1.6740    1.0000 </r>
       <r>    2.3908    1.0000 </r>
       <r>    2.5796    1.0000 </r>
       <r>    2.5953    1.0000 </r>
       <r>    2.7844    1.0000 </r>
       <r>    3.4067    1.0000 </r>
       <r>    3.8598    1.0000 </r>
       <r>    4.5508    1.0000 </r>
       <r>    6.8628    0.0000 </r>
       <r>    6.8913    0.0000 </r>
       <r>    7.0288    0.0000 </r>
       <r>    7.0495    0.0000 </r>
      </set>
      <set comment="kpoint 59">
       <r>   -9.8973    1.0000 </r>
       <r>   -9.7981    1.0000 </r>
       <r>   -8.7161    1.0000 </r>
       <r>   -8.5488    1.0000 </r>
       <r>   -1.6343    1.0000 </r>
       <r>   -1.1113    1.0000 </r>
       <r>    1.5304    1.0000 </r>
       <r>    1.5345    1.0000 </r>
       <r>    1.5759    1.0000 </r>
       <r>    1.5800    1.0000 </r>
       <r>    1.7889    1.0000 </r>
       <r>    2.5838    1.0000 </r>
       <r>    2.6499    1.0000 </r>
       <r>    2.6645    1.0000 </r>
       <r>    2.7157    1.0000 </r>
       <r>    3.2860    1.0000 </r>
       <r>    3.8624    1.0000 </r>
       <r>    4.6054    1.0000 </r>
       <r>    6.9284    0.0000 </r>
       <r>    6.9317    0.0000 </r>
       <r>    6.9776    0.0000 </r>
       <r>    6.9948    0.0000 </r>
      </set>
      <set comment="kpoint 60">
       <r>   -9.9103    1.0000 </r>
       <r>   -9.8110    1.0000 </r>
       <r>   -8.7226    1.0000 </r>
       <r>   -8.5546    1.0000 </r>
       <r>   -1.6499    1.0000 </r>
       <r>   -1.1267    1.0000 </r>
       <r>    1.5616    1.0000 </r>
       <r>    1.5616    1.0000 </r>
       <r>    1.5657    1.0000 </r>
       <r>    1.5657    1.0000 </r>
       <r>    1.8332    1.0000 </r>
       <r>    2.6730    1.0000 </r>
       <r>    2.6731    1.0000 </r>
       <r>    2.6873    1.0000 </r>
       <r>    2.6873    1.0000 </r>
       <r>    3.2209    1.0000 </r>
       <r>    3.8628    1.0000 </r>
       <r>    4.6232    1.0000 </r>
       <r>    6.9439    0.0000 </r>
       <r>    6.9519    0.0000 </r>
       <r>    6.9597    0.0000 </r>
       <r>    7.1487    0.0000 </r>
      </set>
     </set>
    </set>
   </array>
  </eigenvalues>
  <separator name="orbital magnetization" >
   <v name="MAGDIPOLOUT">      0.00000000      0.00000000      0.00000000</v>
  </separator>
  <dos>
   <i name="efermi">      5.20310547 </i>
   <total>
    <array>
     <dimension dim="1">gridpoints</dimension>
     <dimension dim="2">spin</dimension>
     <field>energy</field>
     <field>total</field>
     <field>integrated</field>
     <set>
      <set comment="spin 1">
       <r>   -12.0000     0.0000     0.0000 </r>
       <r>   -11.9900     0.0000     0.0000 </r>
       <r>   -11.9800     0.0000     0.0000 </r>
       <r>   -11.9700     0.0000     0.0000 </r>
       <r>   -11.9600     0.0000     0.0000 </r>
       <r>   -11.9500     0.0000     0.0000 </r>
       <r>   -11.9400     0.0000     0.0000 </r>
       <r>   -11.9300     0.0000     0.0000 </r>
[...]
        <r>  0.0000  0.0505  0.0131  0.0172  0.0000  0.0000  0.0000  0.0000  0.0000 </r>
        <r>  0.0000  0.0505  0.0131  0.0172  0.0000  0.0000  0.0000  0.0000  0.0000 </r>
        <r>  0.0000  0.0505  0.0131  0.0172  0.0000  0.0000  0.0000  0.0000  0.0000 </r>
       </set>
       <set comment="band 13">
        <r>  0.0000  0.0000  0.0000  0.0000  0.0000  0.0676  0.0000  0.2026  0.0000 </r>
        <r>  0.0000  0.0000  0.0000  0.0000  0.0000  0.0676  0.0000  0.2027  0.0000 </r>
        <r>  0.0000  0.0195  0.0000  0.0566  0.0000  0.0000  0.0000  0.0000  0.0000 </r>
        <r>  0.0000  0.0195  0.0000  0.0566  0.0000  0.0000  0.0000  0.0000  0.0000 </r>
        <r>  0.0000  0.0195  0.0000  0.0566  0.0000  0.0000  0.0000  0.0000  0.0000 </r>
        <r>  0.0000  0.0195  0.0000  0.0566  0.0000  0.0000  0.0000  0.0000  0.0000 </r>
       </set>
       <set comment="band 14">
        <r>  0.0000  0.0000  0.0000  0.0000  0.0000  0.0684  0.0000  0.2040  0.0000 </r>
        <r>  0.0000  0.0000  0.0000  0.0000  0.0000  0.0684  0.0000  0.2039  0.0000 </r>
        <r>  0.0000  0.0192  0.0000  0.0564  0.0000  0.0000  0.0000  0.0000  0.0000 </r>
        <r>  0.0000  0.0192  0.0000  0.0564  0.0000  0.0000  0.0000  0.0000  0.0000 </r>
        <r>  0.0000  0.0192  0.0000  0.0564  0.0000  0.0000  0.0000  0.0000  0.0000 </r>
        <r>  0.0000  0.0192  0.0000  0.0564  0.0000  0.0000  0.0000  0.0000  0.0000 </r>
       </set>
       <set comment="band 15">
        <r>  0.0000  0.0000  0.0037  0.0000  0.0000  0.1873  0.0000  0.0626  0.0000 </r>
        <r>  0.0000  0.0000  0.0037  0.0000  0.0000  0.1874  0.0000  0.0626  0.0000 </r>
        <r>  0.0000  0.0546  0.0062  0.0189  0.0000  0.0000  0.0000  0.0000  0.0000 </r>
        <r>  0.0000  0.0545  0.0062  0.0189  0.0000  0.0000  0.0000  0.0000  0.0000 </r>
        <r>  0.0000  0.0545  0.0062  0.0189  0.0000  0.0000  0.0000  0.0000  0.0000 </r>
        <r>  0.0000  0.0546  0.0062  0.0189  0.0000  0.0000  0.0000  0.0000  0.0000 </r>
       </set>
       <set comment="band 16">
        <r>  0.0000  0.0000  0.0286  0.0000  0.0000  0.0133  0.0000  0.0044  0.0000 </r>
        <r>  0.0000  0.0000  0.0286  0.0000  0.0000  0.0133  0.0000  0.0044  0.0000 </r>
        <r>  0.0001  0.0072  0.1294  0.0025  0.0000  0.0000  0.0000  0.0000  0.0000 </r>
        <r>  0.0001  0.0072  0.1294  0.0025  0.0000  0.0000  0.0000  0.0000  0.0000 </r>
        <r>  0.0001  0.0072  0.1294  0.0025  0.0000  0.0000  0.0000  0.0000  0.0000 </r>
        <r>  0.0001  0.0072  0.1294  0.0025  0.0000  0.0000  0.0000  0.0000  0.0000 </r>
       </set>
       <set comment="band 17">
        <r>  0.0041  0.0000  0.0000  0.0000  0.0001  0.0000  0.3080  0.0000  0.0004 </r>
        <r>  0.0041  0.0000  0.0000  0.0000  0.0001  0.0000  0.3080  0.0000  0.0004 </r>
        <r>  0.0001  0.0002  0.0267  0.0001  0.0000  0.0000  0.0000  0.0000  0.0000 </r>
        <r>  0.0001  0.0002  0.0267  0.0001  0.0000  0.0000  0.0000  0.0000  0.0000 </r>
        <r>  0.0001  0.0002  0.0267  0.0001  0.0000  0.0000  0.0000  0.0000  0.0000 </r>
        <r>  0.0001  0.0002  0.0267  0.0001  0.0000  0.0000  0.0000  0.0000  0.0000 </r>
       </set>
       <set comment="band 18">
        <r>  0.0139  0.0000  0.0000  0.0000  0.0004  0.0000  0.2973  0.0000  0.0013 </r>
        <r>  0.0139  0.0000  0.0000  0.0000  0.0004  0.0000  0.2973  0.0000  0.0013 </r>
        <r>  0.0043  0.0006  0.0456  0.0002  0.0000  0.0000  0.0000  0.0000  0.0000 </r>
        <r>  0.0043  0.0005  0.0456  0.0002  0.0000  0.0000  0.0000  0.0000  0.0000 </r>
        <r>  0.0043  0.0006  0.0456  0.0002  0.0000  0.0000  0.0000  0.0000  0.0000 </r>
        <r>  0.0043  0.0006  0.0456  0.0002  0.0000  0.0000  0.0000  0.0000  0.0000 </r>
       </set>
       <set comment="band 19">
        <r>  0.0000  0.0000  0.0001  0.0000  0.0007  0.2406  0.0000  0.0850  0.0006 </r>
        <r>  0.0000  0.0000  0.0000  0.0001  0.0020  0.0138  0.0000  0.0185  0.0007 </r>
        <r>  0.0002  0.0056  0.0001  0.0146  0.0000  0.0000  0.0000  0.0000  0.0000 </r>
        <r>  0.0013  0.1331  0.0002  0.0324  0.0000  0.0000  0.0000  0.0000  0.0000 </r>
        <r>  0.0014  0.1155  0.0002  0.0447  0.0000  0.0000  0.0000  0.0000  0.0000 </r>
        <r>  0.0002  0.0099  0.0000  0.0066  0.0000  0.0000  0.0000  0.0000  0.0000 </r>
       </set>
       <set comment="band 20">
        <r>  0.0000  0.0000  0.0000  0.0002  0.0024  0.0291  0.0000  0.0016  0.0004 </r>
        <r>  0.0000  0.0001  0.0001  0.0003  0.0052  0.2492  0.0000  0.0714  0.0027 </r>
        <r>  0.0011  0.0967  0.0003  0.0394  0.0000  0.0000  0.0000  0.0000  0.0000 </r>
        <r>  0.0001  0.0117  0.0001  0.0043  0.0000  0.0000  0.0000  0.0000  0.0000 </r>
        <r>  0.0001  0.0175  0.0001  0.0004  0.0000  0.0000  0.0000  0.0000  0.0000 </r>
        <r>  0.0015  0.1589  0.0003  0.0342  0.0000  0.0000  0.0000  0.0000  0.0000 </r>
       </set>
       <set comment="band 21">
        <r>  0.0000  0.0002  0.0000  0.0001  0.0009  0.0507  0.0000  0.0945  0.0027 </r>
        <r>  0.0000  0.0002  0.0000  0.0002  0.0029  0.0634  0.0000  0.1387  0.0029 </r>
        <r>  0.0000  0.0181  0.0000  0.0936  0.0000  0.0000  0.0000  0.0000  0.0000 </r>
        <r>  0.0000  0.0129  0.0000  0.0616  0.0000  0.0000  0.0000  0.0000  0.0000 </r>
        <r>  0.0000  0.0394  0.0000  0.0419  0.0000  0.0000  0.0000  0.0000  0.0000 </r>
        <r>  0.0000  0.0487  0.0000  0.0578  0.0000  0.0000  0.0000  0.0000  0.0000 </r>
       </set>
       <set comment="band 22">
        <r>  0.0000  0.0018  0.0000  0.0006  0.0108  0.0321  0.0004  0.1497  0.0285 </r>
        <r>  0.0000  0.0002  0.0000  0.0000  0.0002  0.0215  0.0001  0.1052  0.0029 </r>
        <r>  0.0000  0.0059  0.0000  0.0558  0.0000  0.0000  0.0000  0.0000  0.0000 </r>
        <r>  0.0001  0.0171  0.0001  0.0887  0.0000  0.0000  0.0000  0.0000  0.0000 </r>
        <r>  0.0001  0.0548  0.0001  0.0852  0.0000  0.0000  0.0000  0.0000  0.0000 </r>
        <r>  0.0000  0.0192  0.0000  0.0549  0.0000  0.0000  0.0000  0.0000  0.0000 </r>
       </set>
      </set>
      <set comment="kpoint 60">
       <set comment="band 1">
        <r>  0.0641  0.0000  0.0000  0.0000  0.0000  0.0000  0.0001  0.0000  0.0000 </r>
        <r>  0.0641  0.0000  0.0000  0.0000  0.0000  0.0000  0.0001  0.0000  0.0000 </r>
        <r>  0.1374  0.0000  0.0022  0.0000  0.0000  0.0000  0.0000  0.0000  0.0000 </r>
        <r>  0.1374  0.0000  0.0022  0.0000  0.0000  0.0000  0.0000  0.0000  0.0000 </r>
        <r>  0.1374  0.0000  0.0022  0.0000  0.0000  0.0000  0.0000  0.0000  0.0000 </r>
        <r>  0.1374  0.0000  0.0022  0.0000  0.0000  0.0000  0.0000  0.0000  0.0000 </r>
       </set>
       <set comment="band 2">
        <r>  0.0668  0.0000  0.0000  0.0000  0.0000  0.0000  0.0001  0.0000  0.0000 </r>
        <r>  0.0668  0.0000  0.0000  0.0000  0.0000  0.0000  0.0001  0.0000  0.0000 </r>
        <r>  0.1381  0.0000  0.0028  0.0000  0.0000  0.0000  0.0000  0.0000  0.0000 </r>
        <r>  0.1381  0.0000  0.0028  0.0000  0.0000  0.0000  0.0000  0.0000  0.0000 </r>
        <r>  0.1381  0.0000  0.0028  0.0000  0.0000  0.0000  0.0000  0.0000  0.0000 </r>
        <r>  0.1381  0.0000  0.0028  0.0000  0.0000  0.0000  0.0000  0.0000  0.0000 </r>
       </set>
       <set comment="band 3">
        <r>  0.0000  0.0000  0.0288  0.0000  0.0000  0.0000  0.0000  0.0000  0.0000 </r>
        <r>  0.0000  0.0000  0.0288  0.0000  0.0000  0.0000  0.0000  0.0000  0.0000 </r>
        <r>  0.1559  0.0000  0.0001  0.0000  0.0000  0.0000  0.0000  0.0000  0.0000 </r>
        <r>  0.1559  0.0000  0.0001  0.0000  0.0000  0.0000  0.0000  0.0000  0.0000 </r>
        <r>  0.1559  0.0000  0.0001  0.0000  0.0000  0.0000  0.0000  0.0000  0.0000 </r>
        <r>  0.1559  0.0000  0.0001  0.0000  0.0000  0.0000  0.0000  0.0000  0.0000 </r>
       </set>
       <set comment="band 4">
        <r>  0.0000  0.0000  0.0305  0.0000  0.0000  0.0000  0.0000  0.0000  0.0000 </r>
        <r>  0.0000  0.0000  0.0305  0.0000  0.0000  0.0000  0.0000  0.0000  0.0000 </r>
        <r>  0.1595  0.0000  0.0003  0.0000  0.0000  0.0000  0.0000  0.0000  0.0000 </r>
        <r>  0.1594  0.0000  0.0003  0.0000  0.0000  0.0000  0.0000  0.0000  0.0000 </r>
        <r>  0.1594  0.0000  0.0003  0.0000  0.0000  0.0000  0.0000  0.0000  0.0000 </r>
        <r>  0.1595  0.0000  0.0003  0.0000  0.0000  0.0000  0.0000  0.0000  0.0000 </r>
       </set>
       <set comment="band 5">
        <r>  0.0651  0.0000  0.0000  0.0000  0.0000  0.0000  0.0877  0.0000  0.0000 </r>
        <r>  0.0651  0.0000  0.0000  0.0000  0.0000  0.0000  0.0877  0.0000  0.0000 </r>
        <r>  0.0069  0.0000  0.0646  0.0000  0.0000  0.0000  0.0000  0.0000  0.0000 </r>
        <r>  0.0069  0.0000  0.0646  0.0000  0.0000  0.0000  0.0000  0.0000  0.0000 </r>
        <r>  0.0069  0.0000  0.0646  0.0000  0.0000  0.0000  0.0000  0.0000  0.0000 </r>
        <r>  0.0069  0.0000  0.0646  0.0000  0.0000  0.0000  0.0000  0.0000  0.0000 </r>
       </set>
       <set comment="band 6">
        <r>  0.0632  0.0000  0.0000  0.0000  0.0000  0.0000  0.1187  0.0000  0.0000 </r>
        <r>  0.0632  0.0000  0.0000  0.0000  0.0000  0.0000  0.1187  0.0000  0.0000 </r>
        <r>  0.0111  0.0000  0.0606  0.0000  0.0000  0.0000  0.0000  0.0000  0.0000 </r>
        <r>  0.0111  0.0000  0.0606  0.0000  0.0000  0.0000  0.0000  0.0000  0.0000 </r>
        <r>  0.0111  0.0000  0.0606  0.0000  0.0000  0.0000  0.0000  0.0000  0.0000 </r>
        <r>  0.0111  0.0000  0.0606  0.0000  0.0000  0.0000  0.0000  0.0000  0.0000 </r>
       </set>
       <set comment="band 7">
        <r>  0.0000  0.0001  0.0000  0.0032  0.2867  0.0000  0.0000  0.0000  0.0112 </r>
        <r>  0.0000  0.0001  0.0000  0.0032  0.2865  0.0000  0.0000  0.0000  0.0112 </r>
        <r>  0.0000  0.0021  0.0000  0.0548  0.0000  0.0000  0.0000  0.0000  0.0000 </r>
        <r>  0.0000  0.0022  0.0000  0.0548  0.0000  0.0000  0.0000  0.0000  0.0000 </r>
        <r>  0.0000  0.0022  0.0000  0.0548  0.0000  0.0000  0.0000  0.0000  0.0000 </r>
        <r>  0.0000  0.0021  0.0000  0.0548  0.0000  0.0000  0.0000  0.0000  0.0000 </r>
       </set>
       <set comment="band 8">
        <r>  0.0000  0.0032  0.0000  0.0001  0.0112  0.0000  0.0000  0.0000  0.2867 </r>
        <r>  0.0000  0.0032  0.0000  0.0001  0.0112  0.0000  0.0000  0.0000  0.2865 </r>
        <r>  0.0000  0.0548  0.0000  0.0021  0.0000  0.0000  0.0000  0.0000  0.0000 </r>
        <r>  0.0000  0.0548  0.0000  0.0022  0.0000  0.0000  0.0000  0.0000  0.0000 </r>
        <r>  0.0000  0.0548  0.0000  0.0022  0.0000  0.0000  0.0000  0.0000  0.0000 </r>
        <r>  0.0000  0.0548  0.0000  0.0021  0.0000  0.0000  0.0000  0.0000  0.0000 </r>
       </set>
       <set comment="band 9">
        <r>  0.0000  0.0001  0.0000  0.0032  0.2875  0.0000  0.0000  0.0000  0.0110 </r>
        <r>  0.0000  0.0001  0.0000  0.0032  0.2877  0.0000  0.0000  0.0000  0.0110 </r>
        <r>  0.0000  0.0021  0.0000  0.0546  0.0000  0.0000  0.0000  0.0000  0.0000 </r>
        <r>  0.0000  0.0021  0.0000  0.0546  0.0000  0.0000  0.0000  0.0000  0.0000 </r>
        <r>  0.0000  0.0021  0.0000  0.0546  0.0000  0.0000  0.0000  0.0000  0.0000 </r>
        <r>  0.0000  0.0021  0.0000  0.0546  0.0000  0.0000  0.0000  0.0000  0.0000 </r>
       </set>
       <set comment="band 10">
        <r>  0.0000  0.0032  0.0000  0.0001  0.0110  0.0000  0.0000  0.0000  0.2875 </r>
        <r>  0.0000  0.0032  0.0000  0.0001  0.0110  0.0000  0.0000  0.0000  0.2877 </r>
        <r>  0.0000  0.0546  0.0000  0.0021  0.0000  0.0000  0.0000  0.0000  0.0000 </r>
        <r>  0.0000  0.0546  0.0000  0.0021  0.0000  0.0000  0.0000  0.0000  0.0000 </r>
        <r>  0.0000  0.0546  0.0000  0.0021  0.0000  0.0000  0.0000  0.0000  0.0000 </r>
        <r>  0.0000  0.0546  0.0000  0.0021  0.0000  0.0000  0.0000  0.0000  0.0000 </r>
       </set>
       <set comment="band 11">
        <r>  0.0000  0.0000  0.0273  0.0000  0.0000  0.0000  0.0000  0.0000  0.0000 </r>
        <r>  0.0000  0.0000  0.0273  0.0000  0.0000  0.0000  0.0000  0.0000  0.0000 </r>
        <r>  0.0009  0.0000  0.1121  0.0000  0.0000  0.0000  0.0000  0.0000  0.0000 </r>
        <r>  0.0009  0.0000  0.1121  0.0000  0.0000  0.0000  0.0000  0.0000  0.0000 </r>
        <r>  0.0009  0.0000  0.1121  0.0000  0.0000  0.0000  0.0000  0.0000  0.0000 </r>
        <r>  0.0009  0.0000  0.1121  0.0000  0.0000  0.0000  0.0000  0.0000  0.0000 </r>
       </set>
       <set comment="band 12">
        <r>  0.0000  0.0000  0.0000  0.0000  0.0000  0.2509  0.0000  0.0205  0.0000 </r>
        <r>  0.0000  0.0000  0.0000  0.0000  0.0000  0.2505  0.0000  0.0204  0.0000 </r>
        <r>  0.0000  0.0702  0.0000  0.0057  0.0000  0.0000  0.0000  0.0000  0.0000 </r>
        <r>  0.0000  0.0703  0.0000  0.0057  0.0000  0.0000  0.0000  0.0000  0.0000 </r>
        <r>  0.0000  0.0703  0.0000  0.0057  0.0000  0.0000  0.0000  0.0000  0.0000 </r>
        <r>  0.0000  0.0702  0.0000  0.0057  0.0000  0.0000  0.0000  0.0000  0.0000 </r>
       </set>
       <set comment="band 13">
        <r>  0.0000  0.0000  0.0000  0.0000  0.0000  0.0204  0.0000  0.2507  0.0000 </r>
        <r>  0.0000  0.0000  0.0000  0.0000  0.0000  0.0204  0.0000  0.2507  0.0000 </r>
        <r>  0.0000  0.0057  0.0000  0.0703  0.0000  0.0000  0.0000  0.0000  0.0000 </r>
        <r>  0.0000  0.0057  0.0000  0.0703  0.0000  0.0000  0.0000  0.0000  0.0000 </r>
        <r>  0.0000  0.0057  0.0000  0.0703  0.0000  0.0000  0.0000  0.0000  0.0000 </r>
        <r>  0.0000  0.0057  0.0000  0.0703  0.0000  0.0000  0.0000  0.0000  0.0000 </r>
       </set>
       <set comment="band 14">
        <r>  0.0000  0.0000  0.0000  0.0000  0.0000  0.2523  0.0000  0.0207  0.0000 </r>
        <r>  0.0000  0.0000  0.0000  0.0000  0.0000  0.2527  0.0000  0.0207  0.0000 </r>
        <r>  0.0000  0.0699  0.0000  0.0057  0.0000  0.0000  0.0000  0.0000  0.0000 </r>
        <r>  0.0000  0.0697  0.0000  0.0057  0.0000  0.0000  0.0000  0.0000  0.0000 </r>
        <r>  0.0000  0.0697  0.0000  0.0057  0.0000  0.0000  0.0000  0.0000  0.0000 </r>
        <r>  0.0000  0.0698  0.0000  0.0057  0.0000  0.0000  0.0000  0.0000  0.0000 </r>
       </set>
       <set comment="band 15">
        <r>  0.0000  0.0000  0.0000  0.0000  0.0000  0.0207  0.0000  0.2525  0.0000 </r>
        <r>  0.0000  0.0000  0.0000  0.0000  0.0000  0.0207  0.0000  0.2525  0.0000 </r>
        <r>  0.0000  0.0057  0.0000  0.0698  0.0000  0.0000  0.0000  0.0000  0.0000 </r>
        <r>  0.0000  0.0057  0.0000  0.0698  0.0000  0.0000  0.0000  0.0000  0.0000 </r>
        <r>  0.0000  0.0057  0.0000  0.0698  0.0000  0.0000  0.0000  0.0000  0.0000 </r>
        <r>  0.0000  0.0057  0.0000  0.0698  0.0000  0.0000  0.0000  0.0000  0.0000 </r>
       </set>
       <set comment="band 16">
        <r>  0.0000  0.0000  0.0291  0.0000  0.0000  0.0000  0.0000  0.0000  0.0000 </r>
        <r>  0.0000  0.0000  0.0291  0.0000  0.0000  0.0000  0.0000  0.0000  0.0000 </r>
        <r>  0.0001  0.0000  0.1428  0.0000  0.0000  0.0000  0.0000  0.0000  0.0000 </r>
        <r>  0.0001  0.0000  0.1428  0.0000  0.0000  0.0000  0.0000  0.0000  0.0000 </r>
        <r>  0.0001  0.0000  0.1428  0.0000  0.0000  0.0000  0.0000  0.0000  0.0000 </r>
        <r>  0.0001  0.0000  0.1428  0.0000  0.0000  0.0000  0.0000  0.0000  0.0000 </r>
       </set>
       <set comment="band 17">
        <r>  0.0041  0.0000  0.0000  0.0000  0.0000  0.0000  0.3081  0.0000  0.0000 </r>
        <r>  0.0041  0.0000  0.0000  0.0000  0.0000  0.0000  0.3081  0.0000  0.0000 </r>
        <r>  0.0001  0.0000  0.0268  0.0000  0.0000  0.0000  0.0000  0.0000  0.0000 </r>
        <r>  0.0001  0.0000  0.0268  0.0000  0.0000  0.0000  0.0000  0.0000  0.0000 </r>
        <r>  0.0001  0.0000  0.0268  0.0000  0.0000  0.0000  0.0000  0.0000  0.0000 </r>
        <r>  0.0001  0.0000  0.0268  0.0000  0.0000  0.0000  0.0000  0.0000  0.0000 </r>
       </set>
       <set comment="band 18">
        <r>  0.0139  0.0000  0.0000  0.0000  0.0000  0.0000  0.2997  0.0000  0.0000 </r>
        <r>  0.0139  0.0000  0.0000  0.0000  0.0000  0.0000  0.2997  0.0000  0.0000 </r>
        <r>  0.0042  0.0000  0.0463  0.0000  0.0000  0.0000  0.0000  0.0000  0.0000 </r>
        <r>  0.0042  0.0000  0.0463  0.0000  0.0000  0.0000  0.0000  0.0000  0.0000 </r>
        <r>  0.0042  0.0000  0.0463  0.0000  0.0000  0.0000  0.0000  0.0000  0.0000 </r>
        <r>  0.0042  0.0000  0.0463  0.0000  0.0000  0.0000  0.0000  0.0000  0.0000 </r>
       </set>
       <set comment="band 19">
        <r>  0.0000  0.0001  0.0000  0.0000  0.0004  0.0218  0.0000  0.0648  0.0014 </r>
        <r>  0.0000  0.0000  0.0000  0.0000  0.0000  0.1641  0.0000  0.1056  0.0002 </r>
        <r>  0.0000  0.0803  0.0000  0.0566  0.0000  0.0000  0.0000  0.0000  0.0000 </r>
        <r>  0.0000  0.0066  0.0000  0.0273  0.0000  0.0000  0.0000  0.0000  0.0000 </r>
        <r>  0.0000  0.0174  0.0000  0.0399  0.0000  0.0000  0.0000  0.0000  0.0000 </r>
        <r>  0.0000  0.0906  0.0000  0.0526  0.0000  0.0000  0.0000  0.0000  0.0000 </r>
       </set>
       <set comment="band 20">
        <r>  0.0000  0.0001  0.0000  0.0002  0.0025  0.1021  0.0000  0.1806  0.0011 </r>
        <r>  0.0000  0.0000  0.0000  0.0001  0.0023  0.0582  0.0000  0.0076  0.0004 </r>
        <r>  0.0000  0.0336  0.0000  0.0032  0.0000  0.0000  0.0000  0.0000  0.0000 </r>
        <r>  0.0000  0.0409  0.0000  0.0730  0.0000  0.0000  0.0000  0.0000  0.0000 </r>
        <r>  0.0000  0.0675  0.0000  0.1196  0.0000  0.0000  0.0000  0.0000  0.0000 </r>
        <r>  0.0000  0.0279  0.0000  0.0083  0.0000  0.0000  0.0000  0.0000  0.0000 </r>
       </set>
       <set comment="band 21">
        <r>  0.0000  0.0005  0.0000  0.0001  0.0013  0.1762  0.0000  0.0832  0.0088 </r>
        <r>  0.0000  0.0000  0.0000  0.0001  0.0022  0.0115  0.0000  0.0686  0.0001 </r>
        <r>  0.0000  0.0073  0.0000  0.0296  0.0000  0.0000  0.0000  0.0000  0.0000 </r>
        <r>  0.0000  0.0550  0.0000  0.0430  0.0000  0.0000  0.0000  0.0000  0.0000 </r>
        <r>  0.0000  0.1430  0.0000  0.0469  0.0000  0.0000  0.0000  0.0000  0.0000 </r>
        <r>  0.0000  0.0055  0.0000  0.0464  0.0000  0.0000  0.0000  0.0000  0.0000 </r>
       </set>
       <set comment="band 22">
        <r>  0.0000  0.0004  0.0000  0.0027  0.0428  0.0036  0.0000  0.0024  0.0063 </r>
        <r>  0.0000  0.0133  0.0000  0.0003  0.0050  0.0145  0.0000  0.0209  0.2118 </r>
        <r>  0.0000  0.2243  0.0000  0.0021  0.0000  0.0000  0.0000  0.0000  0.0000 </r>
        <r>  0.0000  0.0010  0.0000  0.0316  0.0000  0.0000  0.0000  0.0000  0.0000 </r>
        <r>  0.0000  0.0120  0.0000  0.0361  0.0000  0.0000  0.0000  0.0000  0.0000 </r>
        <r>  0.0000  0.1126  0.0000  0.0274  0.0000  0.0000  0.0000  0.0000  0.0000 </r>
       </set>
      </set>
     </set>
    </set>
   </array>
  </projected>
 </calculation>
 <structure name="finalpos" >
  <crystal>
   <varray name="basis" >
    <v>       3.19227375       0.00000000       0.00000000 </v>
    <v>      -1.59613687       2.76459035       0.00000000 </v>
    <v>       0.00000000       0.00000000      13.28154876 </v>
   </varray>
   <i name="volume">    117.21403994 </i>
   <varray name="rec_basis" >
    <v>       0.31325634       0.18085862       0.00000000 </v>
    <v>      -0.00000000       0.36171724       0.00000000 </v>
    <v>       0.00000000       0.00000000       0.07529242 </v>
   </varray>
  </crystal>
  <varray name="positions" >
   <v>       0.33333300       0.66666700       0.25000000 </v>
   <v>       0.66666700       0.33333300       0.75000000 </v>
   <v>       0.33333300       0.66666700       0.86743573 </v>
   <v>       0.66666700       0.33333300       0.13256427 </v>
   <v>       0.66666600       0.33333300       0.36743573 </v>
   <v>       0.33333400       0.66666700       0.63256427 </v>
  </varray>
 </structure>
</modeling>
