   3   3   0   0
  0.9072772E+02  0.3190316E-09  0.3190316E-09  0.3087900E-08  0.5000000E-15
  1.000000000000000E-004
  CAR 
 unknown system                          
      5.48041456    -19.78762212  301     -3.76347552      1.00000000
    -19.788  0.0000E+00  0.0000E+00
    -19.703  0.0000E+00  0.0000E+00
    -19.619  0.0000E+00  0.0000E+00
    -19.535  0.0000E+00  0.0000E+00
    -19.451  0.0000E+00  0.0000E+00
    -19.366  0.0000E+00  0.0000E+00
    -19.282  0.0000E+00  0.0000E+00
    -19.198  0.0000E+00  0.0000E+00
    -19.114  0.0000E+00  0.0000E+00
    -19.030  0.0000E+00  0.0000E+00
    -18.945  0.0000E+00  0.0000E+00
    -18.861  0.0000E+00  0.0000E+00
    -18.777  0.0000E+00  0.0000E+00
    -18.693  0.0000E+00  0.0000E+00
    -18.608  0.0000E+00  0.0000E+00
    -18.524  0.0000E+00  0.0000E+00
    -18.440  0.0000E+00  0.0000E+00
    -18.356  0.0000E+00  0.0000E+00
    -18.272  0.0000E+00  0.0000E+00
    -18.187  0.0000E+00  0.0000E+00
    -18.103  0.0000E+00  0.0000E+00
    -18.019  0.0000E+00  0.0000E+00
    -17.935  0.0000E+00  0.0000E+00
    -17.850  0.0000E+00  0.0000E+00
    -17.766  0.5153E-01  0.5524E-03
    -17.682  0.2539E+00  0.1342E-01
    -17.598  0.4563E+00  0.4333E-01
    -17.513  0.6587E+00  0.9028E-01
    -17.429  0.8611E+00  0.1543E+00
    -17.345  0.5545E+00  0.2046E+00
    -17.261  0.5859E+00  0.2527E+00
    -17.177  0.6172E+00  0.3033E+00
    -17.092  0.6486E+00  0.3566E+00
    -17.008  0.6800E+00  0.4126E+00
    -16.924  0.7114E+00  0.4712E+00
    -16.840  0.7428E+00  0.5324E+00
    -16.755  0.7935E+00  0.5966E+00
    -16.671  0.8815E+00  0.6671E+00
    -16.587  0.9695E+00  0.7451E+00
    -16.503  0.1876E+01  0.8617E+00
    -16.419  0.2872E+01  0.1062E+01
    -16.334  0.2510E+01  0.1274E+01
    -16.250  0.2765E+01  0.1496E+01
    -16.166  0.3019E+01  0.1740E+01
    -16.082  0.3333E+01  0.2005E+01
    -15.997  0.4325E+01  0.2504E+01
    -15.913  0.4100E+01  0.2859E+01
    -15.829  0.3880E+01  0.3195E+01
    -15.745  0.2308E+02  0.3627E+01
    -15.661  0.2003E+01  0.3930E+01
    -15.576  0.0000E+00  0.4000E+01
    -15.492  0.0000E+00  0.4000E+01
    -15.408  0.0000E+00  0.4000E+01
    -15.324  0.0000E+00  0.4000E+01
    -15.239  0.0000E+00  0.4000E+01
    -15.155  0.0000E+00  0.4000E+01
    -15.071  0.0000E+00  0.4000E+01
    -14.987  0.0000E+00  0.4000E+01
    -14.902  0.0000E+00  0.4000E+01
    -14.818  0.0000E+00  0.4000E+01
    -14.734  0.0000E+00  0.4000E+01
    -14.650  0.0000E+00  0.4000E+01
    -14.566  0.0000E+00  0.4000E+01
    -14.481  0.0000E+00  0.4000E+01
    -14.397  0.0000E+00  0.4000E+01
    -14.313  0.0000E+00  0.4000E+01
    -14.229  0.0000E+00  0.4000E+01
    -14.144  0.0000E+00  0.4000E+01
    -14.060  0.0000E+00  0.4000E+01
    -13.976  0.0000E+00  0.4000E+01
    -13.892  0.0000E+00  0.4000E+01
    -13.808  0.0000E+00  0.4000E+01
    -13.723  0.0000E+00  0.4000E+01
    -13.639  0.0000E+00  0.4000E+01
    -13.555  0.0000E+00  0.4000E+01
    -13.471  0.0000E+00  0.4000E+01
    -13.386  0.0000E+00  0.4000E+01
    -13.302  0.0000E+00  0.4000E+01
    -13.218  0.0000E+00  0.4000E+01
    -13.134  0.0000E+00  0.4000E+01
    -13.049  0.0000E+00  0.4000E+01
    -12.965  0.0000E+00  0.4000E+01
    -12.881  0.0000E+00  0.4000E+01
    -12.797  0.0000E+00  0.4000E+01
    -12.713  0.0000E+00  0.4000E+01
    -12.628  0.0000E+00  0.4000E+01
    -12.544  0.0000E+00  0.4000E+01
    -12.460  0.0000E+00  0.4000E+01
    -12.376  0.0000E+00  0.4000E+01
    -12.291  0.0000E+00  0.4000E+01
    -12.207  0.0000E+00  0.4000E+01
    -12.123  0.0000E+00  0.4000E+01
    -12.039  0.0000E+00  0.4000E+01
    -11.955  0.0000E+00  0.4000E+01
    -11.870  0.0000E+00  0.4000E+01
    -11.786  0.0000E+00  0.4000E+01
    -11.702  0.0000E+00  0.4000E+01
    -11.618  0.0000E+00  0.4000E+01
    -11.533  0.0000E+00  0.4000E+01
    -11.449  0.0000E+00  0.4000E+01
    -11.365  0.0000E+00  0.4000E+01
    -11.281  0.0000E+00  0.4000E+01
    -11.196  0.0000E+00  0.4000E+01
    -11.112  0.0000E+00  0.4000E+01
    -11.028  0.0000E+00  0.4000E+01
    -10.944  0.0000E+00  0.4000E+01
    -10.860  0.0000E+00  0.4000E+01
    -10.775  0.0000E+00  0.4000E+01
    -10.691  0.0000E+00  0.4000E+01
    -10.607  0.0000E+00  0.4000E+01
    -10.523  0.0000E+00  0.4000E+01
    -10.438  0.0000E+00  0.4000E+01
    -10.354  0.0000E+00  0.4000E+01
    -10.270  0.0000E+00  0.4000E+01
    -10.186  0.0000E+00  0.4000E+01
    -10.102  0.0000E+00  0.4000E+01
    -10.017  0.0000E+00  0.4000E+01
     -9.933  0.0000E+00  0.4000E+01
     -9.849  0.0000E+00  0.4000E+01
     -9.765  0.0000E+00  0.4000E+01
     -9.680  0.0000E+00  0.4000E+01
     -9.596  0.0000E+00  0.4000E+01
     -9.512  0.0000E+00  0.4000E+01
     -9.428  0.1715E+00  0.4003E+01
     -9.344  0.5384E+00  0.4033E+01
     -9.259  0.1006E+01  0.4097E+01
     -9.175  0.1548E+01  0.4204E+01
     -9.091  0.2654E+01  0.4359E+01
     -9.007  0.2789E+01  0.4890E+01
     -8.922  0.4213E+01  0.5154E+01
     -8.838  0.4252E+01  0.5570E+01
     -8.754  0.2481E+01  0.5854E+01
     -8.670  0.7103E+00  0.5988E+01
     -8.585  0.6310E+01  0.6032E+01
     -8.501  0.2867E+01  0.6410E+01
     -8.417  0.2174E+01  0.6623E+01
     -8.333  0.1480E+01  0.6776E+01
     -8.249  0.1077E+01  0.6878E+01
     -8.164  0.9989E+00  0.6965E+01
     -8.080  0.9206E+00  0.7046E+01
     -7.996  0.8423E+00  0.7120E+01
     -7.912  0.7641E+00  0.7188E+01
     -7.827  0.7575E+00  0.7251E+01
     -7.743  0.2684E+01  0.7365E+01
     -7.659  0.5786E+01  0.7722E+01
     -7.575  0.7658E+01  0.8302E+01
     -7.491  0.3826E+01  0.8723E+01
     -7.406  0.2139E+01  0.8974E+01
     -7.322  0.1422E+01  0.9107E+01
     -7.238  0.1701E+01  0.9236E+01
     -7.154  0.2068E+01  0.9395E+01
     -7.069  0.2152E+01  0.9580E+01
     -6.985  0.2487E+01  0.9775E+01
     -6.901  0.5976E+01  0.1032E+02
     -6.817  0.3788E+01  0.1068E+02
     -6.732  0.2953E+01  0.1096E+02
     -6.648  0.2118E+01  0.1117E+02
     -6.564  0.2058E+01  0.1136E+02
     -6.480  0.1765E+01  0.1152E+02
     -6.396  0.1471E+01  0.1166E+02
     -6.311  0.1357E+01  0.1177E+02
     -6.227  0.1494E+01  0.1189E+02
     -6.143  0.1631E+01  0.1202E+02
     -6.059  0.1999E+01  0.1217E+02
     -5.974  0.1986E+01  0.1234E+02
     -5.890  0.2325E+01  0.1253E+02
     -5.806  0.2532E+01  0.1273E+02
     -5.722  0.5437E+01  0.1319E+02
     -5.638  0.4480E+01  0.1359E+02
     -5.553  0.3753E+01  0.1394E+02
     -5.469  0.2933E+01  0.1422E+02
     -5.385  0.1687E+01  0.1440E+02
     -5.301  0.1643E+01  0.1453E+02
     -5.216  0.1962E+01  0.1468E+02
     -5.132  0.2457E+01  0.1486E+02
     -5.048  0.2757E+01  0.1509E+02
     -4.964  0.2961E+01  0.1533E+02
     -4.879  0.3165E+01  0.1558E+02
     -4.795  0.1891E+01  0.1599E+02
     -4.711  0.5236E-01  0.1600E+02
     -4.627  0.1557E+01  0.1607E+02
     -4.543  0.3071E+01  0.1626E+02
     -4.458  0.3383E+01  0.1654E+02
     -4.374  0.3629E+01  0.1683E+02
     -4.290  0.3996E+01  0.1715E+02
     -4.206  0.2097E+01  0.1743E+02
     -4.121  0.1790E+01  0.1760E+02
     -4.037  0.1921E+01  0.1774E+02
     -3.953  0.1323E+01  0.1788E+02
     -3.869  0.7247E+00  0.1796E+02
     -3.785  0.1265E+00  0.1800E+02
     -3.700  0.0000E+00  0.1800E+02
     -3.616  0.0000E+00  0.1800E+02
     -3.532  0.0000E+00  0.1800E+02
     -3.448  0.0000E+00  0.1800E+02
     -3.363  0.0000E+00  0.1800E+02
     -3.279  0.0000E+00  0.1800E+02
     -3.195  0.0000E+00  0.1800E+02
     -3.111  0.0000E+00  0.1800E+02
     -3.026  0.0000E+00  0.1800E+02
     -2.942  0.0000E+00  0.1800E+02
     -2.858  0.0000E+00  0.1800E+02
     -2.774  0.0000E+00  0.1800E+02
     -2.690  0.0000E+00  0.1800E+02
     -2.605  0.0000E+00  0.1800E+02
     -2.521  0.0000E+00  0.1800E+02
     -2.437  0.0000E+00  0.1800E+02
     -2.353  0.0000E+00  0.1800E+02
     -2.268  0.0000E+00  0.1800E+02
     -2.184  0.0000E+00  0.1800E+02
     -2.100  0.2185E-01  0.1800E+02
     -2.016  0.2242E+00  0.1801E+02
     -1.932  0.4265E+00  0.1804E+02
     -1.847  0.6288E+00  0.1808E+02
     -1.763  0.2568E+01  0.1820E+02
     -1.679  0.4957E+01  0.1852E+02
     -1.595  0.7346E+01  0.1904E+02
     -1.510  0.1523E+01  0.1978E+02
     -1.426  0.1405E+01  0.1987E+02
     -1.342  0.4380E+01  0.2011E+02
     -1.258  0.5440E+01  0.2055E+02
     -1.174  0.4218E+01  0.2099E+02
     -1.089  0.5268E+01  0.2157E+02
     -1.005  0.3663E+01  0.2210E+02
     -0.921  0.2823E+01  0.2237E+02
     -0.837  0.2088E+01  0.2257E+02
     -0.752  0.1442E+01  0.2272E+02
     -0.668  0.1581E+01  0.2284E+02
     -0.584  0.1903E+01  0.2299E+02
     -0.500  0.2225E+01  0.2316E+02
     -0.415  0.5226E+01  0.2347E+02
     -0.331  0.3219E+01  0.2383E+02
     -0.247  0.1763E+01  0.2402E+02
     -0.163  0.1552E+01  0.2416E+02
     -0.079  0.1341E+01  0.2428E+02
      0.006  0.1130E+01  0.2439E+02
      0.090  0.9193E+00  0.2447E+02
      0.174  0.8250E+00  0.2454E+02
      0.258  0.8812E+00  0.2461E+02
      0.343  0.2232E+01  0.2474E+02
      0.427  0.2989E+01  0.2496E+02
      0.511  0.3370E+01  0.2524E+02
      0.595  0.3378E+01  0.2552E+02
      0.679  0.1458E+01  0.2573E+02
      0.764  0.1127E+01  0.2584E+02
      0.848  0.7967E+00  0.2592E+02
      0.932  0.4661E+00  0.2597E+02
      1.016  0.1355E+00  0.2600E+02
      1.101  0.0000E+00  0.2600E+02
      1.185  0.0000E+00  0.2600E+02
      1.269  0.0000E+00  0.2600E+02
      1.353  0.0000E+00  0.2600E+02
      1.438  0.0000E+00  0.2600E+02
      1.522  0.0000E+00  0.2600E+02
      1.606  0.0000E+00  0.2600E+02
      1.690  0.2367E-01  0.2600E+02
      1.774  0.1013E+00  0.2601E+02
      1.859  0.1788E+00  0.2602E+02
      1.943  0.2564E+00  0.2604E+02
      2.027  0.3340E+00  0.2606E+02
      2.111  0.4116E+00  0.2609E+02
      2.196  0.4892E+00  0.2613E+02
      2.280  0.3422E+00  0.2617E+02
      2.364  0.3604E+00  0.2620E+02
      2.448  0.4159E+00  0.2623E+02
      2.532  0.5341E+00  0.2627E+02
      2.617  0.6523E+00  0.2632E+02
      2.701  0.7705E+00  0.2638E+02
      2.785  0.8887E+00  0.2645E+02
      2.869  0.1007E+01  0.2653E+02
      2.954  0.1125E+01  0.2662E+02
      3.038  0.1243E+01  0.2672E+02
      3.122  0.1362E+01  0.2683E+02
      3.206  0.1480E+01  0.2695E+02
      3.291  0.6767E+01  0.2737E+02
      3.375  0.3709E+01  0.2781E+02
      3.459  0.6499E+00  0.2799E+02
      3.543  0.0000E+00  0.2800E+02
      3.627  0.0000E+00  0.2800E+02
      3.712  0.0000E+00  0.2800E+02
      3.796  0.0000E+00  0.2800E+02
      3.880  0.0000E+00  0.2800E+02
      3.964  0.0000E+00  0.2800E+02
      4.049  0.0000E+00  0.2800E+02
      4.133  0.0000E+00  0.2800E+02
      4.217  0.0000E+00  0.2800E+02
      4.301  0.0000E+00  0.2800E+02
      4.385  0.0000E+00  0.2800E+02
      4.470  0.0000E+00  0.2800E+02
      4.554  0.0000E+00  0.2800E+02
      4.638  0.0000E+00  0.2800E+02
      4.722  0.0000E+00  0.2800E+02
      4.807  0.0000E+00  0.2800E+02
      4.891  0.0000E+00  0.2800E+02
      4.975  0.0000E+00  0.2800E+02
      5.059  0.0000E+00  0.2800E+02
      5.144  0.0000E+00  0.2800E+02
      5.228  0.0000E+00  0.2800E+02
      5.312  0.0000E+00  0.2800E+02
      5.396  0.0000E+00  0.2800E+02
      5.480  0.0000E+00  0.2800E+02
