    3    3    1    1
  0.9072772E+02  0.3190316E-09  0.3190316E-09  0.3087900E-08  0.5000000E-15
  1.000000000000000E-004
  CAR 
 unknown system                          
     18      7     14
 
  0.0000000E+00  0.0000000E+00  0.0000000E+00  0.2777778E-01
    1      -17.787622   1.000000
    2      -16.579568   1.000000
    3       -9.307896   1.000000
    4       -6.346276   1.000000
    5       -6.346270   1.000000
    6       -5.485988   1.000000
    7       -5.241722   1.000000
    8       -5.241690   1.000000
    9       -3.766148   1.000000
   10       -0.994012   0.000000
   11       -0.993982   0.000000
   12       -0.769635   0.000000
   13       -0.769621   0.000000
   14        1.664517   0.000000
 
  0.1666667E+00  0.0000000E+00  0.0000000E+00  0.1666667E+00
    1      -17.415173   1.000000
    2      -16.401830   1.000000
    3       -8.906864   1.000000
    4       -7.085889   1.000000
    5       -6.618433   1.000000
    6       -5.942725   1.000000
    7       -5.783822   1.000000
    8       -4.815609   1.000000
    9       -4.050780   1.000000
   10       -1.467344   0.000000
   11       -1.198212   0.000000
   12       -1.149500   0.000000
   13       -0.428732   0.000000
   14        2.266074   0.000000
 
  0.3333333E+00  0.0000000E+00  0.0000000E+00  0.1666667E+00
    1      -16.541914   1.000000
    2      -15.995216   1.000000
    3       -8.935994   1.000000
    4       -7.887640   1.000000
    5       -7.635961   1.000000
    6       -6.574062   1.000000
    7       -5.358073   1.000000
    8       -5.104310   1.000000
    9       -4.713442   1.000000
   10       -1.578323   0.000000
   11       -1.446883   0.000000
   12       -0.381927   0.000000
   13        0.274088   0.000000
   14        3.474124   0.000000
 
  0.5000000E+00 -0.2775558E-16  0.0000000E+00  0.8333333E-01
    1      -16.001257   1.000000
    2      -15.756525   1.000000
    3       -9.467095   1.000000
    4       -8.507070   1.000000
    5       -7.796003   1.000000
    6       -6.890286   1.000000
    7       -5.608068   1.000000
    8       -4.707878   1.000000
    9       -4.386024   1.000000
   10       -1.579396   0.000000
   11       -1.064867   0.000000
   12        0.137338   0.000000
   13        0.486541   0.000000
   14        2.416902   0.000000
 
  0.1666667E+00  0.1666667E+00  0.0000000E+00  0.1666667E+00
    1      -16.784275   1.000000
    2      -16.102035   1.000000
    3       -8.635905   1.000000
    4       -7.544066   1.000000
    5       -7.371766   1.000000
    6       -6.902429   1.000000
    7       -5.703485   1.000000
    8       -4.793080   1.000000
    9       -4.536882   1.000000
   10       -1.830006   0.000000
   11       -1.315980   0.000000
   12       -1.107917   0.000000
   13        0.359428   0.000000
   14        3.248649   0.000000
 
  0.3333333E+00  0.1666667E+00  0.0000000E+00  0.3333333E+00
    1      -16.024011   1.000000
    2      -15.743107   1.000000
    3       -9.011126   1.000000
    4       -8.590410   1.000000
    5       -7.563173   1.000000
    6       -6.933870   1.000000
    7       -6.092095   1.000000
    8       -5.456275   1.000000
    9       -4.239881   1.000000
   10       -1.582251   0.000000
   11       -1.028112   0.000000
   12       -0.447254   0.000000
   13        0.638797   0.000000
   14        3.275219   0.000000
 
  0.3333333E+00  0.3333333E+00  0.0000000E+00  0.5555556E-01
    1      -15.750645   1.000000
    2      -15.590918   1.000000
    3       -9.097084   1.000000
    4       -8.288288   1.000000
    5       -7.793861   1.000000
    6       -7.303893   1.000000
    7       -6.623005   1.000000
    8       -5.894429   1.000000
    9       -3.767494   1.000000
   10       -2.109095   0.000000
   11       -0.727408   0.000000
   12       -0.277247   0.000000
   13        1.050926   0.000000
   14        3.480415   0.000000
