Automatically generated mesh
       7
Reciprocal lattice
    0.00000000000000    0.00000000000000    0.00000000000000             1
    0.16666666666667    0.00000000000000    0.00000000000000             6
    0.33333333333333    0.00000000000000    0.00000000000000             6
    0.50000000000000   -0.00000000000000    0.00000000000000             3
    0.16666666666667    0.16666666666667    0.00000000000000             6
    0.33333333333333    0.16666666666667    0.00000000000000            12
    0.33333333333333    0.33333333333333    0.00000000000000             2
Tetrahedra
        19    0.00462962962963
        12         2         2         2         5
        12         1         2         2         2
         6         1         1         2         2
         6         2         2         5         5
        12         3         5         5         6
        12         2         3         5         5
        12         2         2         3         5
        12         3         5         6         6
        12         3         3         5         6
        12         2         3         3         5
        12         4         6         6         6
        12         3         4         6         6
        12         3         3         4         6
         6         4         4         6         6
        12         3         4         4         6
        24         6         6         6         7
        12         5         6         6         6
         6         5         5         6         6
        12         6         6         7         7
