 vasp.5.4.4.18Apr17-6-g9f103f2a35 (build Jun 30 2017 11:15:00) complex          
  
 executed on    STALLO_VASP_5.4.4 date 2019.11.08  12:20:45
 running on    4 total cores
 distrk:  each k-point on    4 cores,    1 groups
 distr:  one band on NCORES_PER_BAND=   2 cores,    2 groups


--------------------------------------------------------------------------------------------------------


 INCAR:
 POTCAR:   PAW_PBE Mo 08Apr2002                   
 POTCAR:    PAW_PBE S 17Jan2003                   
 POTCAR:   PAW_PBE Mo 08Apr2002                   
   VRHFIN =Mo: 4p5s4d                                                           
   LEXCH  = PE                                                                  
   EATOM  =   217.5180 eV,   15.9871 Ry                                         
                                                                                
   TITEL  = PAW_PBE Mo 08Apr2002                                                
   LULTRA =        F    use ultrasoft PP ?                                      
   IUNSCR =        1    unscreen: 0-lin 1-nonlin 2-no                           
   RPACOR =    2.200    partial core radius                                     
   POMASS =   95.940; ZVAL   =    6.000    mass and valenz                      
   RCORE  =    2.750    outmost cutoff radius                                   
   RWIGS  =    2.750; RWIGS  =    1.455    wigner-seitz radius (au A)           
   ENMAX  =  224.584; ENMIN  =  168.438 eV                                      
   RCLOC  =    2.111    cutoff for local pot                                    
   LCOR   =        T    correct aug charges                                     
   LPAW   =        T    paw PP                                                  
   EAUG   =  345.278                                                            
   DEXC   =    -.088                                                            
   RMAX   =    3.077    core radius for proj-oper                               
   RAUG   =    1.300    factor for augmentation sphere                          
   RDEP   =    2.815    radius for radial grids                                 
   QCUT   =   -4.063; QGAM   =    8.126    optimization parameters              
                                                                                
   Description                                                                  
     l     E      TYP  RCUT    TYP  RCUT                                        
     2   .000     23  2.500                                                     
     2   .000     23  2.500                                                     
     0   .000     23  2.600                                                     
     0  1.000     23  2.600                                                     
     1   .400     23  2.750                                                     
     1  2.000     23  2.750                                                     
     3   .000      7   .000                                                     
  local pseudopotential read in
  partial core-charges read in
  atomic valenz-charges read in
  non local Contribution for L=           2  read in
    real space projection operators read in
  non local Contribution for L=           2  read in
    real space projection operators read in
  non local Contribution for L=           0  read in
    real space projection operators read in
  non local Contribution for L=           0  read in
    real space projection operators read in
  non local Contribution for L=           1  read in
    real space projection operators read in
  non local Contribution for L=           1  read in
    real space projection operators read in
    PAW grid and wavefunctions read in
 
   number of l-projection  operators is LMAX  =           6
   number of lm-projection operators is LMMAX =          18
 
 POTCAR:    PAW_PBE S 17Jan2003                   
   VRHFIN =S : s2p4                                                             
   LEXCH  = PE                                                                  
   EATOM  =   276.8230 eV,   20.3459 Ry                                         
                                                                                
   TITEL  = PAW_PBE S 17Jan2003                                                 
   LULTRA =        F    use ultrasoft PP ?                                      
   IUNSCR =        1    unscreen: 0-lin 1-nonlin 2-no                           
   RPACOR =    1.500    partial core radius                                     
   POMASS =   32.066; ZVAL   =    6.000    mass and valenz                      
   RCORE  =    1.900    outmost cutoff radius                                   
   RWIGS  =    2.200; RWIGS  =    1.164    wigner-seitz radius (au A)           
   ENMAX  =  280.000; ENMIN  =  194.016 eV                                      
   ICORE  =        2    local potential                                         
   LCOR   =        T    correct aug charges                                     
   LPAW   =        T    paw PP                                                  
   EAUG   =  335.092                                                            
   DEXC   =     .000                                                            
   RMAX   =    2.867    core radius for proj-oper                               
   RAUG   =    1.300    factor for augmentation sphere                          
   RDEP   =    1.954    radius for radial grids                                 
   QCUT   =   -4.360; QGAM   =    8.721    optimization parameters              
                                                                                
   Description                                                                  
     l     E      TYP  RCUT    TYP  RCUT                                        
     0   .000     23  1.900                                                     
     0   .000     23  1.900                                                     
     1   .000     23  1.900                                                     
     1   .000     23  1.900                                                     
     2   .000     23  1.900                                                     
  local pseudopotential read in
  partial core-charges read in
  atomic valenz-charges read in
  non local Contribution for L=           0  read in
    real space projection operators read in
  non local Contribution for L=           0  read in
    real space projection operators read in
  non local Contribution for L=           1  read in
    real space projection operators read in
  non local Contribution for L=           1  read in
    real space projection operators read in
    PAW grid and wavefunctions read in
 
   number of l-projection  operators is LMAX  =           4
   number of lm-projection operators is LMMAX =           8
 
 PAW_PBE Mo 08Apr2002                   :
 energy of atom  1       EATOM= -217.5180
 kinetic energy error for atom=    0.0023 (will be added to EATOM!!)
  PAW_PBE S 17Jan2003                   :
 energy of atom  2       EATOM= -276.8230
 kinetic energy error for atom=    0.0033 (will be added to EATOM!!)
 
 
 POSCAR: MoS2_mp-2815_computed                   
  positions in cartesian coordinates
  velocities in cartesian coordinates
  No initial velocities read in
 exchange correlation table for  LEXCH =        8
   RHO(1)=    0.500       N(1)  =     2000
   RHO(2)=  100.500       N(2)  =     4000
 


--------------------------------------------------------------------------------------------------------


 ion  position               nearest neighbor table
   1  0.333  0.667  0.120-   3 2.42   2 2.42   2 2.42   3 2.42   3 2.42   2 2.42
   2  0.667  0.333  0.070-   1 2.42   1 2.42   1 2.42
   3  0.667  0.333  0.171-   1 2.42   1 2.42   1 2.42
 
  LATTYP: Found a hexagonal cell.
 ALAT       =     3.1903157300
 C/A-ratio  =     9.6789806757
  
  Lattice vectors:
  
 A1 = (   3.1903157300,   0.0000000000,   0.0000000000)
 A2 = (  -1.5951578650,   2.7628944683,   0.0000000000)
 A3 = (   0.0000000000,   0.0000000000,  30.8790043000)


Analysis of symmetry for initial positions (statically):
=====================================================================
 Subroutine PRICEL returns:
 Original cell was already a primitive cell.
 

 Routine SETGRP: Setting up the symmetry group for a 
 hexagonal supercell.


 Subroutine GETGRP returns: Found 12 space group operations
 (whereof  6 operations were pure point group operations)
 out of a pool of 24 trial point group operations.


The static configuration has the point symmetry C_3v.
 The point group associated with its full space group is D_3h.


Analysis of symmetry for dynamics (positions and initial velocities):
=====================================================================
 Subroutine PRICEL returns:
 Original cell was already a primitive cell.
 

 Routine SETGRP: Setting up the symmetry group for a 
 hexagonal supercell.


 Subroutine GETGRP returns: Found 12 space group operations
 (whereof  6 operations were pure point group operations)
 out of a pool of 24 trial point group operations.


The dynamic configuration has the point symmetry C_3v.
 The point group associated with its full space group is D_3h.


 Subroutine INISYM returns: Found 12 space group operations
 (whereof  6 operations are pure point group operations),
 and found     1 'primitive' translations

 
 
 KPOINTS: k-density: 3.0                          

Automatic generation of k-mesh.
Space group operators:
 irot       det(A)        alpha          n_x          n_y          n_z        tau_x        tau_y        tau_z
    1     1.000000     0.000000     1.000000     0.000000     0.000000     0.000000     0.000000     0.000000
    2     1.000000   120.000000     0.000000     0.000000    -1.000000     0.000000     0.000000     0.000000
    3     1.000000   120.000000     0.000000     0.000000     1.000000     0.000000     0.000000     0.000000
    4    -1.000000   180.000000     1.000000    -0.000000     0.000000     0.000000     0.000000     0.000000
    5    -1.000000   180.000000     0.500000    -0.866025     0.000000     0.000000     0.000000     0.000000
    6    -1.000000   180.000000    -0.500000    -0.866025     0.000000     0.000000     0.000000     0.000000
    7    -1.000000    60.000000     0.000000     0.000000    -1.000000     0.000000     0.000000     0.240924
    8    -1.000000   179.999999     0.000000     0.000000     1.000000     0.000000     0.000000     0.240924
    9    -1.000000    60.000000     0.000000     0.000000     1.000000     0.000000     0.000001     0.240924
   10     1.000000   180.000000     0.866025    -0.500000     0.000000     0.000000     0.000000     0.240924
   11     1.000000   180.000000     0.000000     1.000000     0.000000     0.000000     0.000000     0.240924
   12     1.000000   180.000000     0.866025     0.500000     0.000000    -0.000000     0.000001     0.240924
 
 Subroutine IBZKPT returns following result:
 ===========================================
 
 Found      7 irreducible k-points:
 
 Following reciprocal coordinates:
            Coordinates               Weight
  0.000000  0.000000  0.000000      1.000000
  0.166667  0.000000  0.000000      6.000000
  0.333333  0.000000  0.000000      6.000000
  0.500000 -0.000000  0.000000      3.000000
  0.166667  0.166667  0.000000      6.000000
  0.333333  0.166667  0.000000     12.000000
  0.333333  0.333333  0.000000      2.000000
 
 Following cartesian coordinates:
            Coordinates               Weight
  0.000000  0.000000  0.000000      1.000000
  0.052241  0.030162  0.000000      6.000000
  0.104483  0.060323  0.000000      6.000000
  0.156724  0.090485  0.000000      3.000000
  0.052241  0.090485  0.000000      6.000000
  0.104483  0.120646  0.000000     12.000000
  0.104483  0.180970  0.000000      2.000000
 
 TETIRR: Found     19 inequivalent tetrahedra from      216


--------------------------------------------------------------------------------------------------------




 Dimension of arrays:
   k-points           NKPTS =      7   k-points in BZ     NKDIM =      7   number of bands    NBANDS=     14
   number of dos      NEDOS =    301   number of ions     NIONS =      3
   non local maximal  LDIM  =      6   non local SUM 2l+1 LMDIM =     18
   total plane-waves  NPLWV =  51840
   max r-space proj   IRMAX =      1   max aug-charges    IRDMAX=  12426
   dimension x,y,z NGX =    18 NGY =   18 NGZ =  160
   dimension x,y,z NGXF=    36 NGYF=   36 NGZF=  320
   support grid    NGXF=    36 NGYF=   36 NGZF=  320
   ions per type =               1   2
   NGX,Y,Z   is equivalent  to a cutoff of   9.38,  9.38,  8.61 a.u.
   NGXF,Y,Z  is equivalent  to a cutoff of  18.76, 18.76, 17.23 a.u.

 SYSTEM =  unknown system                          
 POSCAR =  MoS2_mp-2815_computed                   

 Startparameter for this run:
   NWRITE =      2    write-flag & timer
   PREC   = normal    normal or accurate (medium, high low for compatibility)
   ISTART =      0    job   : 0-new  1-cont  2-samecut
   ICHARG =      2    charge: 1-file 2-atom 10-const
   ISPIN  =      1    spin polarized calculation?
   LNONCOLLINEAR =      F non collinear calculations
   LSORBIT =      F    spin-orbit coupling
   INIWAV =      1    electr: 0-lowe 1-rand  2-diag
   LASPH  =      F    aspherical Exc in radial PAW
   METAGGA=      F    non-selfconsistent MetaGGA calc.

 Electronic Relaxation 1
   ENCUT  =  450.0 eV  33.07 Ry    5.75 a.u.   5.52  5.52 53.41*2*pi/ulx,y,z
   ENINI  =  450.0     initial cutoff
   ENAUG  =  345.3 eV  augmentation charge cutoff
   NELM   =     60;   NELMIN=  4; NELMDL=  0     # of ELM steps 
   EDIFF  = 0.1E-04   stopping-criterion for ELM
   LREAL  =      F    real-space projection
   NLSPLINE    = F    spline interpolate recip. space projectors
   LCOMPAT=      F    compatible to vasp.4.4
   GGA_COMPAT  = T    GGA compatible to vasp.4.4-vasp.4.6
   LMAXPAW     = -100 max onsite density
   LMAXMIX     =    2 max onsite mixed and CHGCAR
   VOSKOWN=      0    Vosko Wilk Nusair interpolation
   ROPT   =    0.00000   0.00000
 Ionic relaxation
   EDIFFG = 0.1E-03   stopping-criterion for IOM
   NSW    =      0    number of steps for IOM
   NBLOCK =      1;   KBLOCK =      1    inner block; outer block 
   IBRION =     -1    ionic relax: 0-MD 1-quasi-New 2-CG
   NFREE  =      0    steps in history (QN), initial steepest desc. (CG)
   ISIF   =      2    stress and relaxation
   IWAVPR =     10    prediction:  0-non 1-charg 2-wave 3-comb
   ISYM   =      2    0-nonsym 1-usesym 2-fastsym
   LCORR  =      T    Harris-Foulkes like correction to forces

   POTIM  = 0.5000    time-step for ionic-motion
   TEIN   =    0.0    initial temperature
   TEBEG  =    0.0;   TEEND  =   0.0 temperature during run
   SMASS  =  -3.00    Nose mass-parameter (am)
   estimated Nose-frequenzy (Omega)   =  0.10E-29 period in steps =****** mass=  -0.233E-27a.u.
   SCALEE = 1.0000    scale energy and forces
   NPACO  =    256;   APACO  = 16.0  distance and # of slots for P.C.
   PSTRESS=    0.0 pullay stress

  Mass of Ions in am
   POMASS =  95.94 32.07
  Ionic Valenz
   ZVAL   =   6.00  6.00
  Atomic Wigner-Seitz radii
   RWIGS  =  -1.00 -1.00
  virtual crystal weights 
   VCA    =   1.00  1.00
   NELECT =      18.0000    total number of electrons
   NUPDOWN=      -1.0000    fix difference up-down

 DOS related values:
   EMIN   =  10.00;   EMAX   =-10.00  energy-range for DOS
   EFERMI =   0.00
   ISMEAR =    -5;   SIGMA  =   0.20  broadening in eV -4-tet -1-fermi 0-gaus

 Electronic relaxation 2 (details)
   IALGO  =     68    algorithm
   LDIAG  =      T    sub-space diagonalisation (order eigenvalues)
   LSUBROT=      F    optimize rotation matrix (better conditioning)
   TURBO    =      0    0=normal 1=particle mesh
   IRESTART =      0    0=no restart 2=restart with 2 vectors
   NREBOOT  =      0    no. of reboots
   NMIN     =      0    reboot dimension
   EREF     =   0.00    reference energy to select bands
   IMIX   =      4    mixing-type and parameters
     AMIX     =   0.40;   BMIX     =  1.00
     AMIX_MAG =   1.60;   BMIX_MAG =  1.00
     AMIN     =   0.10
     WC   =   100.;   INIMIX=   1;  MIXPRE=   1;  MAXMIX= -45

 Intra band minimization:
   WEIMIN = 0.0000     energy-eigenvalue tresh-hold
   EBREAK =  0.18E-06  absolut break condition
   DEPER  =   0.30     relativ break condition  

   TIME   =   0.40     timestep for ELM

  volume/ion in A,a.u.               =      90.73       612.26
  Fermi-wavevector in a.u.,A,eV,Ry     =   0.662031  1.251058  5.963237  0.438286
  Thomas-Fermi vector in A             =   1.734975
 
 Write flags
   LWAVE        =      F    write WAVECAR
   LDOWNSAMPLE  =      F    k-point downsampling of WAVECAR
   LCHARG       =      T    write CHGCAR
   LVTOT        =      F    write LOCPOT, total local potential
   LVHAR        =      F    write LOCPOT, Hartree potential only
   LELF         =      F    write electronic localiz. function (ELF)
   LORBIT       =      0    0 simple, 1 ext, 2 COOP (PROOUT), +10 PAW based schemes


 Dipole corrections
   LMONO  =      F    monopole corrections only (constant potential shift)
   LDIPOL =      F    correct potential (dipole corrections)
   IDIPOL =      0    1-x, 2-y, 3-z, 4-all directions 
   EPSILON=  1.0000000 bulk dielectric constant

 Exchange correlation treatment:
   GGA     =    --    GGA type
   LEXCH   =     8    internal setting for exchange type
   VOSKOWN=      0    Vosko Wilk Nusair interpolation
   LHFCALC =     F    Hartree Fock is set to
   LHFONE  =     F    Hartree Fock one center treatment
   AEXX    =    0.0000 exact exchange contribution

 Linear response parameters
   LEPSILON=     F    determine dielectric tensor
   LRPA    =     F    only Hartree local field effects (RPA)
   LNABLA  =     F    use nabla operator in PAW spheres
   LVEL    =     F    velocity operator in full k-point grid
   LINTERFAST=   F  fast interpolation
   KINTER  =     0    interpolate to denser k-point grid
   CSHIFT  =0.1000    complex shift for real part using Kramers Kronig
   OMEGAMAX=  -1.0    maximum frequency
   DEG_THRESHOLD= 0.2000000E-02 threshold for treating states as degnerate
   RTIME   =   -0.100 relaxation time in fs
  (WPLASMAI=    0.000 imaginary part of plasma frequency in eV, 0.658/RTIME)
   DFIELD  = 0.0000000 0.0000000 0.0000000 field for delta impulse in time
 
 Orbital magnetization related:
   ORBITALMAG=     F  switch on orbital magnetization
   LCHIMAG   =     F  perturbation theory with respect to B field
   DQ        =  0.001000  dq finite difference perturbation B field
   LLRAUG    =     F  two centre corrections for induced B field



--------------------------------------------------------------------------------------------------------


 Static calculation
 charge density and potential will be updated during run
 non-spin polarized calculation
 RMM-DIIS sequential band-by-band and
  variant of blocked Davidson during initial phase
 perform sub-space diagonalisation
    before iterative eigenvector-optimisation
 modified Broyden-mixing scheme, WC =      100.0
 initial mixing is a Kerker type mixing with AMIX =  0.4000 and BMIX =      1.0000
 Hartree-type preconditioning will be used
 using additional bands            5
 reciprocal scheme for non local part
 use partial core corrections
 calculate Harris-corrections to forces 
   (improved forces if not selfconsistent)
 use gradient corrections 
 use of overlap-Matrix (Vanderbilt PP)
 Fermi weights with tetrahedron method with Bloechl corrections


--------------------------------------------------------------------------------------------------------


  energy-cutoff  :      450.00
  volume of cell :      272.18
      direct lattice vectors                 reciprocal lattice vectors
     3.190315730  0.000000000  0.000000000     0.313448600  0.180969634  0.000000000
    -1.595157865  2.762894468  0.000000000     0.000000000  0.361939267  0.000000000
     0.000000000  0.000000000 30.879004300     0.000000000  0.000000000  0.032384464

  length of vectors
     3.190315730  3.190315730 30.879004300     0.361939267  0.361939267  0.032384464


 
 k-points in units of 2pi/SCALE and weight: k-density: 3.0                          
   0.00000000  0.00000000  0.00000000       0.028
   0.05224143  0.03016161  0.00000000       0.167
   0.10448287  0.06032321  0.00000000       0.167
   0.15672430  0.09048482  0.00000000       0.083
   0.05224143  0.09048482  0.00000000       0.167
   0.10448287  0.12064642  0.00000000       0.333
   0.10448287  0.18096963  0.00000000       0.056
 
 k-points in reciprocal lattice and weights: k-density: 3.0                          
   0.00000000  0.00000000  0.00000000       0.028
   0.16666667  0.00000000  0.00000000       0.167
   0.33333333  0.00000000  0.00000000       0.167
   0.50000000 -0.00000000  0.00000000       0.083
   0.16666667  0.16666667  0.00000000       0.167
   0.33333333  0.16666667  0.00000000       0.333
   0.33333333  0.33333333  0.00000000       0.056
 
 position of ions in fractional coordinates (direct lattice) 
   0.33333300  0.66666700  0.12046214
   0.66666700  0.33333300  0.06978420
   0.66666600  0.33333300  0.17114009
 
 position of ions in cartesian coordinates  (Angst):
  -0.00000160  1.84193057  3.71975108
   1.59515946  0.92096390  2.15486668
   1.59515627  0.92096390  5.28463547
 


--------------------------------------------------------------------------------------------------------


 k-point  1 :   0.0000 0.0000 0.0000  plane waves:    6011
 k-point  2 :   0.1667 0.0000 0.0000  plane waves:    5969
 k-point  3 :   0.3333 0.0000 0.0000  plane waves:    5888
 k-point  4 :   0.5000-0.0000 0.0000  plane waves:    5816
 k-point  5 :   0.1667 0.1667 0.0000  plane waves:    5917
 k-point  6 :   0.3333 0.1667 0.0000  plane waves:    5878
 k-point  7 :   0.3333 0.3333 0.0000  plane waves:    5910

 maximum and minimum number of plane-waves per node :      3019     2888

 maximum number of plane-waves:      6011
 maximum index in each direction: 
   IXMAX=    5   IYMAX=    5   IZMAX=   53
   IXMIN=   -6   IYMIN=   -5   IZMIN=  -53


 parallel 3D FFT for wavefunctions:
    minimum data exchange during FFTs selected (reduces bandwidth)
 parallel 3D FFT for charge:
    minimum data exchange during FFTs selected (reduces bandwidth)


 total amount of memory used by VASP MPI-rank0    49747. kBytes
=======================================================================

   base      :      30000. kBytes
   nonl-proj :       6175. kBytes
   fftplans  :       4304. kBytes
   grid      :       6871. kBytes
   one-center:         31. kBytes
   wavefun   :       2366. kBytes
 
     INWAV:  cpu time    0.0000: real time    0.0003
 Broyden mixing: mesh for mixing (old mesh)
   NGX = 11   NGY = 11   NGZ =107
  (NGX  = 36   NGY  = 36   NGZ  =320)
  gives a total of  12947 points

 initial charge density was supplied:
 charge density of overlapping atoms calculated
 number of electron      18.0000000 magnetization 
 keeping initial charge density in first step


--------------------------------------------------------------------------------------------------------


 Maximum index for augmentation-charges         2904 (set IRDMAX)


--------------------------------------------------------------------------------------------------------


 First call to EWALD:  gamma=   0.273
 Maximum number of real-space cells 6x 6x 1
 Maximum number of reciprocal cells 2x 2x11

    FEWALD:  cpu time    0.0010: real time    0.0015


--------------------------------------- Iteration      1(   1)  ---------------------------------------


    POTLOK:  cpu time    0.0560: real time    0.0810
    SETDIJ:  cpu time    0.0040: real time    0.0035
     EDDAV:  cpu time    0.1940: real time    0.1983
 BZINTS: Fermi energy:  6.153952; 18.000000 electrons
         Band energy: -20.113165;  BLOECHL correction: -0.643651
       DOS:  cpu time    0.0010: real time    0.0007
    --------------------------------------------
      LOOP:  cpu time    0.2550: real time    0.2835

 eigenvalue-minimisations  :   196
 total energy-change (2. order) : 0.1296156E+03  (-0.5343293E+03)
 number of electron      18.0000000 magnetization 
 augmentation part       18.0000000 magnetization 

 Free energy of the ion-electron system (eV)
  ---------------------------------------------------
  alpha Z        PSCENC =        10.89288288
  Ewald energy   TEWEN  =      5368.65661653
  -Hartree energ DENC   =     -6042.21104469
  -exchange      EXHF   =         0.00000000
  -V(xc)+E(xc)   XCENC  =       -36.31053806
  PAW double counting   =       406.88651198     -329.34073203
  entropy T*S    EENTRO =         0.00000000
  eigenvalues    EBANDS =       -20.11316484
  atomic energy  EATOM  =       771.15511399
  Solvation  Ediel_sol  =         0.00000000
  ---------------------------------------------------
  free energy    TOTEN  =       129.61564576 eV

  energy without entropy =      129.61564576  energy(sigma->0) =      129.61564576


--------------------------------------------------------------------------------------------------------




--------------------------------------- Iteration      1(   2)  ---------------------------------------


     EDDAV:  cpu time    0.2920: real time    0.2935
 BZINTS: Fermi energy: -2.371296; 18.000000 electrons
         Band energy:-156.182232;  BLOECHL correction:  0.000000
       DOS:  cpu time    0.0000: real time    0.0002
    --------------------------------------------
      LOOP:  cpu time    0.2920: real time    0.2937

 eigenvalue-minimisations  :   340
 total energy-change (2. order) :-0.1360691E+03  (-0.1265387E+03)
 number of electron      18.0000000 magnetization 
 augmentation part       18.0000000 magnetization 

 Free energy of the ion-electron system (eV)
  ---------------------------------------------------
  alpha Z        PSCENC =        10.89288288
  Ewald energy   TEWEN  =      5368.65661653
  -Hartree energ DENC   =     -6042.21104469
  -exchange      EXHF   =         0.00000000
  -V(xc)+E(xc)   XCENC  =       -36.31053806
  PAW double counting   =       406.88651198     -329.34073203
  entropy T*S    EENTRO =         0.00000000
  eigenvalues    EBANDS =      -156.18223205
  atomic energy  EATOM  =       771.15511399
  Solvation  Ediel_sol  =         0.00000000
  ---------------------------------------------------
  free energy    TOTEN  =        -6.45342145 eV

  energy without entropy =       -6.45342145  energy(sigma->0) =       -6.45342145


--------------------------------------------------------------------------------------------------------




--------------------------------------- Iteration      1(   3)  ---------------------------------------


     EDDAV:  cpu time    0.2480: real time    0.2487
 BZINTS: Fermi energy: -3.667241; 18.000000 electrons
         Band energy:-172.786475;  BLOECHL correction:  0.000000
       DOS:  cpu time    0.0000: real time    0.0002
    --------------------------------------------
      LOOP:  cpu time    0.2480: real time    0.2488

 eigenvalue-minimisations  :   280
 total energy-change (2. order) :-0.1660424E+02  (-0.1641190E+02)
 number of electron      18.0000000 magnetization 
 augmentation part       18.0000000 magnetization 

 Free energy of the ion-electron system (eV)
  ---------------------------------------------------
  alpha Z        PSCENC =        10.89288288
  Ewald energy   TEWEN  =      5368.65661653
  -Hartree energ DENC   =     -6042.21104469
  -exchange      EXHF   =         0.00000000
  -V(xc)+E(xc)   XCENC  =       -36.31053806
  PAW double counting   =       406.88651198     -329.34073203
  entropy T*S    EENTRO =         0.00000000
  eigenvalues    EBANDS =      -172.78647482
  atomic energy  EATOM  =       771.15511399
  Solvation  Ediel_sol  =         0.00000000
  ---------------------------------------------------
  free energy    TOTEN  =       -23.05766422 eV

  energy without entropy =      -23.05766422  energy(sigma->0) =      -23.05766422


--------------------------------------------------------------------------------------------------------




--------------------------------------- Iteration      1(   4)  ---------------------------------------


     EDDAV:  cpu time    0.2200: real time    0.2223
 BZINTS: Fermi energy: -3.648658; 18.000000 electrons
         Band energy:-173.125376;  BLOECHL correction:  0.000000
       DOS:  cpu time    0.0000: real time    0.0002
    --------------------------------------------
      LOOP:  cpu time    0.2200: real time    0.2225

 eigenvalue-minimisations  :   238
 total energy-change (2. order) :-0.3389011E+00  (-0.3370373E+00)
 number of electron      18.0000000 magnetization 
 augmentation part       18.0000000 magnetization 

 Free energy of the ion-electron system (eV)
  ---------------------------------------------------
  alpha Z        PSCENC =        10.89288288
  Ewald energy   TEWEN  =      5368.65661653
  -Hartree energ DENC   =     -6042.21104469
  -exchange      EXHF   =         0.00000000
  -V(xc)+E(xc)   XCENC  =       -36.31053806
  PAW double counting   =       406.88651198     -329.34073203
  entropy T*S    EENTRO =         0.00000000
  eigenvalues    EBANDS =      -173.12537590
  atomic energy  EATOM  =       771.15511399
  Solvation  Ediel_sol  =         0.00000000
  ---------------------------------------------------
  free energy    TOTEN  =       -23.39656530 eV

  energy without entropy =      -23.39656530  energy(sigma->0) =      -23.39656530


--------------------------------------------------------------------------------------------------------




--------------------------------------- Iteration      1(   5)  ---------------------------------------


     EDDAV:  cpu time    0.2510: real time    0.2515
 BZINTS: Fermi energy: -3.657620; 18.000000 electrons
         Band energy:-173.134141;  BLOECHL correction:  0.000000
       DOS:  cpu time    0.0000: real time    0.0002
    CHARGE:  cpu time    0.0210: real time    0.0208
    MIXING:  cpu time    0.0020: real time    0.0019
    --------------------------------------------
      LOOP:  cpu time    0.2740: real time    0.2744

 eigenvalue-minimisations  :   284
 total energy-change (2. order) :-0.8764825E-02  (-0.8763381E-02)
 number of electron      18.0000016 magnetization 
 augmentation part       -0.9451549 magnetization 

 Broyden mixing:
  rms(total) = 0.68829E+00    rms(broyden)= 0.68828E+00
  rms(prec ) = 0.73207E+00
  weight for this iteration     100.00

 Free energy of the ion-electron system (eV)
  ---------------------------------------------------
  alpha Z        PSCENC =        10.89288288
  Ewald energy   TEWEN  =      5368.65661653
  -Hartree energ DENC   =     -6042.21104469
  -exchange      EXHF   =         0.00000000
  -V(xc)+E(xc)   XCENC  =       -36.31053806
  PAW double counting   =       406.88651198     -329.34073203
  entropy T*S    EENTRO =         0.00000000
  eigenvalues    EBANDS =      -173.13414073
  atomic energy  EATOM  =       771.15511399
  Solvation  Ediel_sol  =         0.00000000
  ---------------------------------------------------
  free energy    TOTEN  =       -23.40533013 eV

  energy without entropy =      -23.40533013  energy(sigma->0) =      -23.40533013


--------------------------------------------------------------------------------------------------------




--------------------------------------- Iteration      1(   6)  ---------------------------------------


    POTLOK:  cpu time    0.0530: real time    0.0534
    SETDIJ:  cpu time    0.0030: real time    0.0025
    EDDIAG:  cpu time    0.0380: real time    0.0390
  RMM-DIIS:  cpu time    0.1650: real time    0.1648
    ORTHCH:  cpu time    0.0030: real time    0.0035
 BZINTS: Fermi energy: -4.715293; 18.000000 electrons
         Band energy:-173.648299;  BLOECHL correction:  0.000000
       DOS:  cpu time    0.0000: real time    0.0002
    CHARGE:  cpu time    0.0210: real time    0.0203
    MIXING:  cpu time    0.0010: real time    0.0017
    --------------------------------------------
      LOOP:  cpu time    0.2840: real time    0.2855

 eigenvalue-minimisations  :   205
 total energy-change (2. order) : 0.1161373E+01  (-0.5415975E+00)
 number of electron      18.0000016 magnetization 
 augmentation part       -0.3994825 magnetization 

 Broyden mixing:
  rms(total) = 0.26120E+00    rms(broyden)= 0.26120E+00
  rms(prec ) = 0.29630E+00
  weight for this iteration     100.00

 eigenvalues of (default mixing * dielectric matrix)
  average eigenvalue GAMMA=   0.8343
  0.8343

 Free energy of the ion-electron system (eV)
  ---------------------------------------------------
  alpha Z        PSCENC =        10.89288288
  Ewald energy   TEWEN  =      5368.65661653
  -Hartree energ DENC   =     -6040.53202545
  -exchange      EXHF   =         0.00000000
  -V(xc)+E(xc)   XCENC  =       -35.42415924
  PAW double counting   =       423.99810673     -347.34219376
  entropy T*S    EENTRO =         0.00000000
  eigenvalues    EBANDS =      -173.64829885
  atomic energy  EATOM  =       771.15511399
  Solvation  Ediel_sol  =         0.00000000
  ---------------------------------------------------
  free energy    TOTEN  =       -22.24395717 eV

  energy without entropy =      -22.24395717  energy(sigma->0) =      -22.24395717


--------------------------------------------------------------------------------------------------------




--------------------------------------- Iteration      1(   7)  ---------------------------------------


    POTLOK:  cpu time    0.0480: real time    0.0478
    SETDIJ:  cpu time    0.0030: real time    0.0025
    EDDIAG:  cpu time    0.0380: real time    0.0384
  RMM-DIIS:  cpu time    0.1650: real time    0.1640
    ORTHCH:  cpu time    0.0030: real time    0.0035
 BZINTS: Fermi energy: -4.148021; 18.000000 electrons
         Band energy:-167.335586;  BLOECHL correction:  0.000000
       DOS:  cpu time    0.0000: real time    0.0001
    CHARGE:  cpu time    0.0200: real time    0.0204
    MIXING:  cpu time    0.0020: real time    0.0018
    --------------------------------------------
      LOOP:  cpu time    0.2790: real time    0.2785

 eigenvalue-minimisations  :   205
 total energy-change (2. order) : 0.3829981E+00  (-0.5578109E-01)
 number of electron      18.0000016 magnetization 
 augmentation part       -0.6000274 magnetization 

 Broyden mixing:
  rms(total) = 0.15030E+00    rms(broyden)= 0.15030E+00
  rms(prec ) = 0.15671E+00
  weight for this iteration     100.00

 eigenvalues of (default mixing * dielectric matrix)
  average eigenvalue GAMMA=   1.3621
  0.6670  2.0573

 Free energy of the ion-electron system (eV)
  ---------------------------------------------------
  alpha Z        PSCENC =        10.89288288
  Ewald energy   TEWEN  =      5368.65661653
  -Hartree energ DENC   =     -6046.08362560
  -exchange      EXHF   =         0.00000000
  -V(xc)+E(xc)   XCENC  =       -35.56847550
  PAW double counting   =       441.60001265     -365.17789778
  entropy T*S    EENTRO =         0.00000000
  eigenvalues    EBANDS =      -167.33558625
  atomic energy  EATOM  =       771.15511399
  Solvation  Ediel_sol  =         0.00000000
  ---------------------------------------------------
  free energy    TOTEN  =       -21.86095908 eV

  energy without entropy =      -21.86095908  energy(sigma->0) =      -21.86095908


--------------------------------------------------------------------------------------------------------




--------------------------------------- Iteration      1(   8)  ---------------------------------------


    POTLOK:  cpu time    0.0480: real time    0.0511
    SETDIJ:  cpu time    0.0030: real time    0.0025
    EDDIAG:  cpu time    0.0380: real time    0.0384
  RMM-DIIS:  cpu time    0.1690: real time    0.1686
    ORTHCH:  cpu time    0.0020: real time    0.0035
 BZINTS: Fermi energy: -4.009145; 18.000000 electrons
         Band energy:-163.040519;  BLOECHL correction:  0.000000
       DOS:  cpu time    0.0000: real time    0.0002
    CHARGE:  cpu time    0.0210: real time    0.0203
    MIXING:  cpu time    0.0020: real time    0.0023
    --------------------------------------------
      LOOP:  cpu time    0.2830: real time    0.2869

 eigenvalue-minimisations  :   211
 total energy-change (2. order) : 0.6007269E-01  (-0.2320598E-01)
 number of electron      18.0000016 magnetization 
 augmentation part       -0.5516166 magnetization 

 Broyden mixing:
  rms(total) = 0.35413E-01    rms(broyden)= 0.35412E-01
  rms(prec ) = 0.37219E-01
  weight for this iteration     100.00

 eigenvalues of (default mixing * dielectric matrix)
  average eigenvalue GAMMA=   1.5008
  1.9185  1.9185  0.6654

 Free energy of the ion-electron system (eV)
  ---------------------------------------------------
  alpha Z        PSCENC =        10.89288288
  Ewald energy   TEWEN  =      5368.65661653
  -Hartree energ DENC   =     -6050.07494191
  -exchange      EXHF   =         0.00000000
  -V(xc)+E(xc)   XCENC  =       -35.29695589
  PAW double counting   =       465.17631343     -389.26939624
  entropy T*S    EENTRO =         0.00000000
  eigenvalues    EBANDS =      -163.04051917
  atomic energy  EATOM  =       771.15511399
  Solvation  Ediel_sol  =         0.00000000
  ---------------------------------------------------
  free energy    TOTEN  =       -21.80088639 eV

  energy without entropy =      -21.80088639  energy(sigma->0) =      -21.80088639


--------------------------------------------------------------------------------------------------------




--------------------------------------- Iteration      1(   9)  ---------------------------------------


    POTLOK:  cpu time    0.0490: real time    0.0485
    SETDIJ:  cpu time    0.0020: real time    0.0025
    EDDIAG:  cpu time    0.0380: real time    0.0384
  RMM-DIIS:  cpu time    0.1880: real time    0.1869
    ORTHCH:  cpu time    0.0030: real time    0.0035
 BZINTS: Fermi energy: -3.965367; 18.000000 electrons
         Band energy:-161.671012;  BLOECHL correction:  0.000000
       DOS:  cpu time    0.0000: real time    0.0001
    CHARGE:  cpu time    0.0200: real time    0.0204
    MIXING:  cpu time    0.0020: real time    0.0019
    --------------------------------------------
      LOOP:  cpu time    0.3020: real time    0.3022

 eigenvalue-minimisations  :   233
 total energy-change (2. order) : 0.4888457E-02  (-0.8581263E-03)
 number of electron      18.0000016 magnetization 
 augmentation part       -0.5470871 magnetization 

 Broyden mixing:
  rms(total) = 0.94947E-02    rms(broyden)= 0.94941E-02
  rms(prec ) = 0.11273E-01
  weight for this iteration     100.00

 eigenvalues of (default mixing * dielectric matrix)
  average eigenvalue GAMMA=   1.5061
  0.6676  1.0460  2.4338  1.8768

 Free energy of the ion-electron system (eV)
  ---------------------------------------------------
  alpha Z        PSCENC =        10.89288288
  Ewald energy   TEWEN  =      5368.65661653
  -Hartree energ DENC   =     -6051.41369582
  -exchange      EXHF   =         0.00000000
  -V(xc)+E(xc)   XCENC  =       -35.24426293
  PAW double counting   =       470.53370116     -394.70534179
  entropy T*S    EENTRO =         0.00000000
  eigenvalues    EBANDS =      -161.67101196
  atomic energy  EATOM  =       771.15511399
  Solvation  Ediel_sol  =         0.00000000
  ---------------------------------------------------
  free energy    TOTEN  =       -21.79599793 eV

  energy without entropy =      -21.79599793  energy(sigma->0) =      -21.79599793


--------------------------------------------------------------------------------------------------------




--------------------------------------- Iteration      1(  10)  ---------------------------------------


    POTLOK:  cpu time    0.0490: real time    0.0485
    SETDIJ:  cpu time    0.0030: real time    0.0025
    EDDIAG:  cpu time    0.0380: real time    0.0384
  RMM-DIIS:  cpu time    0.1850: real time    0.1852
    ORTHCH:  cpu time    0.0030: real time    0.0036
 BZINTS: Fermi energy: -3.853522; 18.000000 electrons
         Band energy:-160.517319;  BLOECHL correction:  0.000000
       DOS:  cpu time    0.0010: real time    0.0002
    CHARGE:  cpu time    0.0200: real time    0.0203
    MIXING:  cpu time    0.0020: real time    0.0021
    --------------------------------------------
      LOOP:  cpu time    0.3010: real time    0.3007

 eigenvalue-minimisations  :   230
 total energy-change (2. order) : 0.7490627E-03  (-0.1621621E-03)
 number of electron      18.0000016 magnetization 
 augmentation part       -0.5513653 magnetization 

 Broyden mixing:
  rms(total) = 0.43887E-02    rms(broyden)= 0.43887E-02
  rms(prec ) = 0.57605E-02
  weight for this iteration     100.00

 eigenvalues of (default mixing * dielectric matrix)
  average eigenvalue GAMMA=   1.6709
  0.6683  1.0364  2.1624  2.2437  2.2437

 Free energy of the ion-electron system (eV)
  ---------------------------------------------------
  alpha Z        PSCENC =        10.89288288
  Ewald energy   TEWEN  =      5368.65661653
  -Hartree energ DENC   =     -6052.55804807
  -exchange      EXHF   =         0.00000000
  -V(xc)+E(xc)   XCENC  =       -35.22329183
  PAW double counting   =       472.74533641     -396.94653932
  entropy T*S    EENTRO =         0.00000000
  eigenvalues    EBANDS =      -160.51731946
  atomic energy  EATOM  =       771.15511399
  Solvation  Ediel_sol  =         0.00000000
  ---------------------------------------------------
  free energy    TOTEN  =       -21.79524887 eV

  energy without entropy =      -21.79524887  energy(sigma->0) =      -21.79524887


--------------------------------------------------------------------------------------------------------




--------------------------------------- Iteration      1(  11)  ---------------------------------------


    POTLOK:  cpu time    0.0480: real time    0.0492
    SETDIJ:  cpu time    0.0040: real time    0.0025
    EDDIAG:  cpu time    0.0380: real time    0.0384
  RMM-DIIS:  cpu time    0.1770: real time    0.1769
    ORTHCH:  cpu time    0.0030: real time    0.0035
 BZINTS: Fermi energy: -3.865085; 18.000000 electrons
         Band energy:-159.357210;  BLOECHL correction:  0.000000
       DOS:  cpu time    0.0000: real time    0.0001
    CHARGE:  cpu time    0.0200: real time    0.0204
    MIXING:  cpu time    0.0020: real time    0.0021
    --------------------------------------------
      LOOP:  cpu time    0.2920: real time    0.2932

 eigenvalue-minimisations  :   219
 total energy-change (2. order) : 0.7655169E-04  (-0.1597702E-03)
 number of electron      18.0000016 magnetization 
 augmentation part       -0.5478211 magnetization 

 Broyden mixing:
  rms(total) = 0.53002E-02    rms(broyden)= 0.53002E-02
  rms(prec ) = 0.59829E-02
  weight for this iteration     100.00

 eigenvalues of (default mixing * dielectric matrix)
  average eigenvalue GAMMA=   1.6740
  2.9484  2.6579  0.6689  0.9322  1.4184  1.4184

 Free energy of the ion-electron system (eV)
  ---------------------------------------------------
  alpha Z        PSCENC =        10.89288288
  Ewald energy   TEWEN  =      5368.65661653
  -Hartree energ DENC   =     -6053.74073662
  -exchange      EXHF   =         0.00000000
  -V(xc)+E(xc)   XCENC  =       -35.20971960
  PAW double counting   =       472.22402487     -396.41614402
  entropy T*S    EENTRO =         0.00000000
  eigenvalues    EBANDS =      -159.35721036
  atomic energy  EATOM  =       771.15511399
  Solvation  Ediel_sol  =         0.00000000
  ---------------------------------------------------
  free energy    TOTEN  =       -21.79517232 eV

  energy without entropy =      -21.79517232  energy(sigma->0) =      -21.79517232


--------------------------------------------------------------------------------------------------------




--------------------------------------- Iteration      1(  12)  ---------------------------------------


    POTLOK:  cpu time    0.0500: real time    0.0519
    SETDIJ:  cpu time    0.0030: real time    0.0025
    EDDIAG:  cpu time    0.0380: real time    0.0386
  RMM-DIIS:  cpu time    0.1720: real time    0.1714
    ORTHCH:  cpu time    0.0030: real time    0.0035
 BZINTS: Fermi energy: -3.827739; 18.000000 electrons
         Band energy:-158.658392;  BLOECHL correction:  0.000000
       DOS:  cpu time    0.0000: real time    0.0001
    CHARGE:  cpu time    0.0210: real time    0.0204
    MIXING:  cpu time    0.0020: real time    0.0022
    --------------------------------------------
      LOOP:  cpu time    0.2890: real time    0.2906

 eigenvalue-minimisations  :   212
 total energy-change (2. order) : 0.1581578E-03  (-0.5131727E-04)
 number of electron      18.0000016 magnetization 
 augmentation part       -0.5504478 magnetization 

 Broyden mixing:
  rms(total) = 0.17625E-02    rms(broyden)= 0.17624E-02
  rms(prec ) = 0.22616E-02
  weight for this iteration     100.00

 eigenvalues of (default mixing * dielectric matrix)
  average eigenvalue GAMMA=   1.9628
  3.9216  2.7485  2.7485  0.6689  0.9637  1.4252  1.2635

 Free energy of the ion-electron system (eV)
  ---------------------------------------------------
  alpha Z        PSCENC =        10.89288288
  Ewald energy   TEWEN  =      5368.65661653
  -Hartree energ DENC   =     -6054.44528514
  -exchange      EXHF   =         0.00000000
  -V(xc)+E(xc)   XCENC  =       -35.20602046
  PAW double counting   =       472.39673661     -396.58666698
  entropy T*S    EENTRO =         0.00000000
  eigenvalues    EBANDS =      -158.65839161
  atomic energy  EATOM  =       771.15511399
  Solvation  Ediel_sol  =         0.00000000
  ---------------------------------------------------
  free energy    TOTEN  =       -21.79501416 eV

  energy without entropy =      -21.79501416  energy(sigma->0) =      -21.79501416


--------------------------------------------------------------------------------------------------------




--------------------------------------- Iteration      1(  13)  ---------------------------------------


    POTLOK:  cpu time    0.0490: real time    0.0494
    SETDIJ:  cpu time    0.0030: real time    0.0025
    EDDIAG:  cpu time    0.0380: real time    0.0384
  RMM-DIIS:  cpu time    0.1580: real time    0.1575
    ORTHCH:  cpu time    0.0030: real time    0.0035
 BZINTS: Fermi energy: -3.785888; 18.000000 electrons
         Band energy:-157.879515;  BLOECHL correction:  0.000000
       DOS:  cpu time    0.0000: real time    0.0001
    CHARGE:  cpu time    0.0210: real time    0.0204
    MIXING:  cpu time    0.0020: real time    0.0023
    --------------------------------------------
      LOOP:  cpu time    0.2740: real time    0.2743

 eigenvalue-minimisations  :   200
 total energy-change (2. order) :-0.3418699E-03  (-0.1693151E-04)
 number of electron      18.0000016 magnetization 
 augmentation part       -0.5488437 magnetization 

 Broyden mixing:
  rms(total) = 0.20144E-02    rms(broyden)= 0.20144E-02
  rms(prec ) = 0.22049E-02
  weight for this iteration     100.00

 eigenvalues of (default mixing * dielectric matrix)
  average eigenvalue GAMMA=   1.9159
  4.8438  2.7084  2.3814  1.4203  1.4203  0.6690  0.9421  0.9421

 Free energy of the ion-electron system (eV)
  ---------------------------------------------------
  alpha Z        PSCENC =        10.89288288
  Ewald energy   TEWEN  =      5368.65661653
  -Hartree energ DENC   =     -6055.22672774
  -exchange      EXHF   =         0.00000000
  -V(xc)+E(xc)   XCENC  =       -35.19889160
  PAW double counting   =       472.33338441     -396.52821911
  entropy T*S    EENTRO =         0.00000000
  eigenvalues    EBANDS =      -157.87951539
  atomic energy  EATOM  =       771.15511399
  Solvation  Ediel_sol  =         0.00000000
  ---------------------------------------------------
  free energy    TOTEN  =       -21.79535603 eV

  energy without entropy =      -21.79535603  energy(sigma->0) =      -21.79535603


--------------------------------------------------------------------------------------------------------




--------------------------------------- Iteration      1(  14)  ---------------------------------------


    POTLOK:  cpu time    0.0490: real time    0.0500
    SETDIJ:  cpu time    0.0040: real time    0.0025
    EDDIAG:  cpu time    0.0380: real time    0.0384
  RMM-DIIS:  cpu time    0.1470: real time    0.1467
    ORTHCH:  cpu time    0.0030: real time    0.0035
 BZINTS: Fermi energy: -3.777124; 18.000000 electrons
         Band energy:-157.717929;  BLOECHL correction:  0.000000
       DOS:  cpu time    0.0000: real time    0.0001
    CHARGE:  cpu time    0.0210: real time    0.0204
    MIXING:  cpu time    0.0020: real time    0.0024
    --------------------------------------------
      LOOP:  cpu time    0.2640: real time    0.2641

 eigenvalue-minimisations  :   175
 total energy-change (2. order) :-0.5414084E-04  (-0.2534933E-05)
 number of electron      18.0000016 magnetization 
 augmentation part       -0.5500030 magnetization 

 Broyden mixing:
  rms(total) = 0.48714E-03    rms(broyden)= 0.48713E-03
  rms(prec ) = 0.62320E-03
  weight for this iteration     100.00

 eigenvalues of (default mixing * dielectric matrix)
  average eigenvalue GAMMA=   2.1822
  6.6082  2.9590  2.4036  2.4036  1.5107  0.6690  1.1850  0.9503  0.9503

 Free energy of the ion-electron system (eV)
  ---------------------------------------------------
  alpha Z        PSCENC =        10.89288288
  Ewald energy   TEWEN  =      5368.65661653
  -Hartree energ DENC   =     -6055.39087958
  -exchange      EXHF   =         0.00000000
  -V(xc)+E(xc)   XCENC  =       -35.20097348
  PAW double counting   =       472.15522264     -396.34546378
  entropy T*S    EENTRO =         0.00000000
  eigenvalues    EBANDS =      -157.71792937
  atomic energy  EATOM  =       771.15511399
  Solvation  Ediel_sol  =         0.00000000
  ---------------------------------------------------
  free energy    TOTEN  =       -21.79541017 eV

  energy without entropy =      -21.79541017  energy(sigma->0) =      -21.79541017


--------------------------------------------------------------------------------------------------------




--------------------------------------- Iteration      1(  15)  ---------------------------------------


    POTLOK:  cpu time    0.0490: real time    0.0501
    SETDIJ:  cpu time    0.0040: real time    0.0025
    EDDIAG:  cpu time    0.0380: real time    0.0385
  RMM-DIIS:  cpu time    0.1200: real time    0.1194
    ORTHCH:  cpu time    0.0020: real time    0.0035
 BZINTS: Fermi energy: -3.768495; 18.000000 electrons
         Band energy:-157.557419;  BLOECHL correction:  0.000000
       DOS:  cpu time    0.0000: real time    0.0001
    CHARGE:  cpu time    0.0210: real time    0.0204
    MIXING:  cpu time    0.0020: real time    0.0025
    --------------------------------------------
      LOOP:  cpu time    0.2360: real time    0.2371

 eigenvalue-minimisations  :   134
 total energy-change (2. order) :-0.1264899E-03  (-0.1128144E-05)
 number of electron      18.0000016 magnetization 
 augmentation part       -0.5497749 magnetization 

 Broyden mixing:
  rms(total) = 0.25924E-03    rms(broyden)= 0.25924E-03
  rms(prec ) = 0.32100E-03
  weight for this iteration     100.00

 eigenvalues of (default mixing * dielectric matrix)
  average eigenvalue GAMMA=   2.1556
  6.7378  3.5185  2.6169  0.6690  1.7421  1.7421  1.5398  1.0484  1.0086  0.9327

 Free energy of the ion-electron system (eV)
  ---------------------------------------------------
  alpha Z        PSCENC =        10.89288288
  Ewald energy   TEWEN  =      5368.65661653
  -Hartree energ DENC   =     -6055.55162366
  -exchange      EXHF   =         0.00000000
  -V(xc)+E(xc)   XCENC  =       -35.20072164
  PAW double counting   =       472.17987448     -396.37026008
  entropy T*S    EENTRO =         0.00000000
  eigenvalues    EBANDS =      -157.55741916
  atomic energy  EATOM  =       771.15511399
  Solvation  Ediel_sol  =         0.00000000
  ---------------------------------------------------
  free energy    TOTEN  =       -21.79553666 eV

  energy without entropy =      -21.79553666  energy(sigma->0) =      -21.79553666


--------------------------------------------------------------------------------------------------------




--------------------------------------- Iteration      1(  16)  ---------------------------------------


    POTLOK:  cpu time    0.0520: real time    0.0536
    SETDIJ:  cpu time    0.0030: real time    0.0028
    EDDIAG:  cpu time    0.0380: real time    0.0385
  RMM-DIIS:  cpu time    0.1140: real time    0.1128
    ORTHCH:  cpu time    0.0030: real time    0.0035
 BZINTS: Fermi energy: -3.765305; 18.000000 electrons
         Band energy:-157.498785;  BLOECHL correction:  0.000000
       DOS:  cpu time    0.0000: real time    0.0001
    CHARGE:  cpu time    0.0200: real time    0.0204
    MIXING:  cpu time    0.0030: real time    0.0027
    --------------------------------------------
      LOOP:  cpu time    0.2330: real time    0.2344

 eigenvalue-minimisations  :   117
 total energy-change (2. order) :-0.4064671E-04  (-0.2556167E-06)
 number of electron      18.0000016 magnetization 
 augmentation part       -0.5498930 magnetization 

 Broyden mixing:
  rms(total) = 0.14854E-03    rms(broyden)= 0.14853E-03
  rms(prec ) = 0.17641E-03
  weight for this iteration     100.00

 eigenvalues of (default mixing * dielectric matrix)
  average eigenvalue GAMMA=   2.2944
  7.4451  3.7173  2.9633  2.6671  2.1320  1.5660  0.6690  1.0973  1.0973  0.9668
  0.9175

 Free energy of the ion-electron system (eV)
  ---------------------------------------------------
  alpha Z        PSCENC =        10.89288288
  Ewald energy   TEWEN  =      5368.65661653
  -Hartree energ DENC   =     -6055.60947708
  -exchange      EXHF   =         0.00000000
  -V(xc)+E(xc)   XCENC  =       -35.20060956
  PAW double counting   =       472.22917420     -396.42049309
  entropy T*S    EENTRO =         0.00000000
  eigenvalues    EBANDS =      -157.49878517
  atomic energy  EATOM  =       771.15511399
  Solvation  Ediel_sol  =         0.00000000
  ---------------------------------------------------
  free energy    TOTEN  =       -21.79557731 eV

  energy without entropy =      -21.79557731  energy(sigma->0) =      -21.79557731


--------------------------------------------------------------------------------------------------------




--------------------------------------- Iteration      1(  17)  ---------------------------------------


    POTLOK:  cpu time    0.0500: real time    0.0500
    SETDIJ:  cpu time    0.0030: real time    0.0028
    EDDIAG:  cpu time    0.0380: real time    0.0384
  RMM-DIIS:  cpu time    0.1060: real time    0.1059
    ORTHCH:  cpu time    0.0030: real time    0.0035
 BZINTS: Fermi energy: -3.763573; 18.000000 electrons
         Band energy:-157.467707;  BLOECHL correction:  0.000000
       DOS:  cpu time    0.0010: real time    0.0002
    CHARGE:  cpu time    0.0200: real time    0.0203
    MIXING:  cpu time    0.0030: real time    0.0028
    --------------------------------------------
      LOOP:  cpu time    0.2240: real time    0.2239

 eigenvalue-minimisations  :    98
 total energy-change (2. order) :-0.3188985E-04  (-0.2286401E-06)
 number of electron      18.0000016 magnetization 
 augmentation part       -0.5499220 magnetization 

 Broyden mixing:
  rms(total) = 0.10734E-03    rms(broyden)= 0.10734E-03
  rms(prec ) = 0.12274E-03
  weight for this iteration     100.00

 eigenvalues of (default mixing * dielectric matrix)
  average eigenvalue GAMMA=   2.2932
  7.7040  4.7228  2.9196  2.4721  2.1418  1.5031  1.4445  0.6690  1.0411  1.0411
  0.9296  0.9296

 Free energy of the ion-electron system (eV)
  ---------------------------------------------------
  alpha Z        PSCENC =        10.89288288
  Ewald energy   TEWEN  =      5368.65661653
  -Hartree energ DENC   =     -6055.64123848
  -exchange      EXHF   =         0.00000000
  -V(xc)+E(xc)   XCENC  =       -35.20076272
  PAW double counting   =       472.19252622     -396.38304073
  entropy T*S    EENTRO =         0.00000000
  eigenvalues    EBANDS =      -157.46770688
  atomic energy  EATOM  =       771.15511399
  Solvation  Ediel_sol  =         0.00000000
  ---------------------------------------------------
  free energy    TOTEN  =       -21.79560920 eV

  energy without entropy =      -21.79560920  energy(sigma->0) =      -21.79560920


--------------------------------------------------------------------------------------------------------




--------------------------------------- Iteration      1(  18)  ---------------------------------------


    POTLOK:  cpu time    0.0500: real time    0.0499
    SETDIJ:  cpu time    0.0030: real time    0.0028
    EDDIAG:  cpu time    0.0380: real time    0.0384
  RMM-DIIS:  cpu time    0.0920: real time    0.0922
    ORTHCH:  cpu time    0.0040: real time    0.0035
 BZINTS: Fermi energy: -3.763476; 18.000000 electrons
         Band energy:-157.465575;  BLOECHL correction:  0.000000
       DOS:  cpu time    0.0000: real time    0.0001
    --------------------------------------------
      LOOP:  cpu time    0.1870: real time    0.1869

 eigenvalue-minimisations  :    54
 total energy-change (2. order) :-0.4411187E-05  (-0.4218674E-07)
 number of electron      18.0000016 magnetization 
 augmentation part       -0.5499220 magnetization 

 Free energy of the ion-electron system (eV)
  ---------------------------------------------------
  alpha Z        PSCENC =        10.89288288
  Ewald energy   TEWEN  =      5368.65661653
  -Hartree energ DENC   =     -6055.64325736
  -exchange      EXHF   =         0.00000000
  -V(xc)+E(xc)   XCENC  =       -35.20072624
  PAW double counting   =       472.19967109     -396.39033960
  entropy T*S    EENTRO =         0.00000000
  eigenvalues    EBANDS =      -157.46557490
  atomic energy  EATOM  =       771.15511399
  Solvation  Ediel_sol  =         0.00000000
  ---------------------------------------------------
  free energy    TOTEN  =       -21.79561361 eV

  energy without entropy =      -21.79561361  energy(sigma->0) =      -21.79561361


--------------------------------------------------------------------------------------------------------




 average (electrostatic) potential at core
  the test charge radii are     1.2296  0.9698
  (the norm of the test charge is              1.0000)
       1 -47.1987       2 -95.0380       3 -95.0380
 
 
 
 E-fermi :  -3.7635     XC(G=0):  -2.5024     alpha+bet : -2.3217


 k-point     1 :       0.0000    0.0000    0.0000
  band No.  band energies     occupation 
      1     -17.7876      2.00000
      2     -16.5796      2.00000
      3      -9.3079      2.00000
      4      -6.3463      2.00000
      5      -6.3463      2.00000
      6      -5.4860      2.00000
      7      -5.2417      2.00000
      8      -5.2417      2.00000
      9      -3.7661      2.00000
     10      -0.9940      0.00000
     11      -0.9940      0.00000
     12      -0.7696      0.00000
     13      -0.7696      0.00000
     14       1.6645      0.00000

 k-point     2 :       0.1667    0.0000    0.0000
  band No.  band energies     occupation 
      1     -17.4152      2.00000
      2     -16.4018      2.00000
      3      -8.9069      2.00000
      4      -7.0859      2.00000
      5      -6.6184      2.00000
      6      -5.9427      2.00000
      7      -5.7838      2.00000
      8      -4.8156      2.00000
      9      -4.0508      2.00000
     10      -1.4673      0.00000
     11      -1.1982      0.00000
     12      -1.1495      0.00000
     13      -0.4287      0.00000
     14       2.2661      0.00000

 k-point     3 :       0.3333    0.0000    0.0000
  band No.  band energies     occupation 
      1     -16.5419      2.00000
      2     -15.9952      2.00000
      3      -8.9360      2.00000
      4      -7.8876      2.00000
      5      -7.6360      2.00000
      6      -6.5741      2.00000
      7      -5.3581      2.00000
      8      -5.1043      2.00000
      9      -4.7134      2.00000
     10      -1.5783      0.00000
     11      -1.4469      0.00000
     12      -0.3819      0.00000
     13       0.2741      0.00000
     14       3.4741      0.00000

 k-point     4 :       0.5000   -0.0000    0.0000
  band No.  band energies     occupation 
      1     -16.0013      2.00000
      2     -15.7565      2.00000
      3      -9.4671      2.00000
      4      -8.5071      2.00000
      5      -7.7960      2.00000
      6      -6.8903      2.00000
      7      -5.6081      2.00000
      8      -4.7079      2.00000
      9      -4.3860      2.00000
     10      -1.5794      0.00000
     11      -1.0649      0.00000
     12       0.1373      0.00000
     13       0.4865      0.00000
     14       2.4169      0.00000

 k-point     5 :       0.1667    0.1667    0.0000
  band No.  band energies     occupation 
      1     -16.7843      2.00000
      2     -16.1020      2.00000
      3      -8.6359      2.00000
      4      -7.5441      2.00000
      5      -7.3718      2.00000
      6      -6.9024      2.00000
      7      -5.7035      2.00000
      8      -4.7931      2.00000
      9      -4.5369      2.00000
     10      -1.8300      0.00000
     11      -1.3160      0.00000
     12      -1.1079      0.00000
     13       0.3594      0.00000
     14       3.2486      0.00000

 k-point     6 :       0.3333    0.1667    0.0000
  band No.  band energies     occupation 
      1     -16.0240      2.00000
      2     -15.7431      2.00000
      3      -9.0111      2.00000
      4      -8.5904      2.00000
      5      -7.5632      2.00000
      6      -6.9339      2.00000
      7      -6.0921      2.00000
      8      -5.4563      2.00000
      9      -4.2399      2.00000
     10      -1.5823      0.00000
     11      -1.0281      0.00000
     12      -0.4473      0.00000
     13       0.6388      0.00000
     14       3.2752      0.00000

 k-point     7 :       0.3333    0.3333    0.0000
  band No.  band energies     occupation 
      1     -15.7506      2.00000
      2     -15.5909      2.00000
      3      -9.0971      2.00000
      4      -8.2883      2.00000
      5      -7.7939      2.00000
      6      -7.3039      2.00000
      7      -6.6230      2.00000
      8      -5.8944      2.00000
      9      -3.7675      2.00000
     10      -2.1091      0.00000
     11      -0.7274      0.00000
     12      -0.2772      0.00000
     13       1.0509      0.00000
     14       3.4804      0.00000


--------------------------------------------------------------------------------------------------------


 soft charge-density along one line, spin component           1
         0         1         2         3         4         5         6         7         8         9
 total charge-density along one line
 
 pseudopotential strength for first ion, spin component:           1
-10.072  -0.000   0.000   0.000   0.000   0.111   0.000  -0.000
 -0.000 -10.074  -0.000  -0.000   0.000   0.000   0.111   0.000
  0.000  -0.000 -10.053  -0.000  -0.000  -0.000   0.000   0.109
  0.000  -0.000  -0.000 -10.074  -0.000  -0.000   0.000   0.000
  0.000   0.000  -0.000  -0.000 -10.072  -0.000  -0.000   0.000
  0.111   0.000  -0.000  -0.000  -0.000   0.097  -0.000   0.000
  0.000   0.111   0.000   0.000  -0.000  -0.000   0.097  -0.000
 -0.000   0.000   0.109   0.000   0.000   0.000  -0.000   0.097
 -0.000   0.000   0.000   0.111   0.000  -0.000  -0.000  -0.000
 -0.000  -0.000   0.000   0.000   0.111   0.000   0.000  -0.000
  0.000   0.000  -0.004   0.000  -0.000  -0.000  -0.000   0.000
 -0.000  -0.000   0.001  -0.000   0.000   0.000   0.000  -0.000
 -0.000   0.000  -0.000  -0.000  -0.007   0.000  -0.000   0.000
 -0.000   0.000   0.000  -0.000   0.000  -0.000  -0.000  -0.000
 -0.007  -0.000   0.000   0.000  -0.000  -0.000  -0.000  -0.000
  0.000  -0.000   0.000   0.000   0.004  -0.000   0.000  -0.000
  0.000  -0.000  -0.000   0.000  -0.000  -0.000   0.000   0.000
  0.004   0.000  -0.000  -0.000   0.000   0.000  -0.000   0.000
 total augmentation occupancy for first ion, spin component:           1
  0.967   0.000  -0.000  -0.000  -0.000   0.601   0.000  -0.000  -0.000  -0.000   0.000   0.000   0.000  -0.000  -0.065  -0.000
  0.000   0.906   0.000   0.000   0.000   0.000   0.839   0.000   0.000  -0.000   0.000   0.000   0.000   0.000   0.000   0.000
 -0.000   0.000   1.028   0.000   0.000  -0.000   0.000   0.502   0.000   0.000   0.112  -0.018  -0.000  -0.000   0.000   0.000
  0.000   0.000   0.000   0.906   0.000   0.000   0.000   0.000   0.839   0.000   0.000  -0.000   0.000   0.000   0.000   0.000
 -0.000   0.000   0.000   0.000   0.967  -0.000  -0.000   0.000   0.000   0.601   0.000  -0.000  -0.065   0.000  -0.000   0.007
  0.601   0.000  -0.000  -0.000  -0.000   0.679  -0.000  -0.000   0.000  -0.000   0.000  -0.000   0.000   0.000  -0.136  -0.000
 -0.000   0.839   0.000   0.000   0.000  -0.000   1.081   0.000   0.000   0.000   0.000   0.000   0.000  -0.000   0.000   0.000
 -0.000   0.000   0.502   0.000   0.000  -0.000  -0.000   0.476  -0.000   0.000   0.059  -0.021  -0.000  -0.000   0.000   0.000
  0.000   0.000  -0.000   0.839   0.000   0.000   0.000  -0.000   1.081  -0.000   0.000   0.000   0.000   0.000   0.000   0.000
 -0.000   0.000   0.000   0.000   0.601  -0.000   0.000   0.000   0.000   0.679   0.000  -0.000  -0.136   0.000  -0.000   0.023
  0.000   0.000   0.112   0.000   0.000   0.000   0.000   0.059   0.000   0.000   1.207  -0.185   0.000   0.000   0.000   0.000
  0.000  -0.000  -0.018   0.000  -0.000  -0.000   0.000  -0.021   0.000  -0.000  -0.185   0.042   0.000   0.000   0.000   0.000
  0.000   0.000  -0.000   0.000  -0.065   0.000   0.000  -0.000   0.000  -0.136  -0.000   0.000   0.217   0.000   0.000  -0.032
 -0.000   0.000  -0.000   0.000   0.000   0.000   0.000  -0.000  -0.000   0.000   0.000   0.000   0.000   0.264  -0.000   0.000
 -0.065  -0.000   0.000   0.000  -0.000  -0.136   0.000   0.000   0.000  -0.000   0.000   0.000   0.000  -0.000   0.217  -0.000
 -0.000  -0.000   0.000  -0.000   0.007  -0.000  -0.000   0.000  -0.000   0.023   0.000   0.000  -0.032   0.000  -0.000   0.005
 -0.000   0.000   0.000   0.000   0.000   0.000   0.000   0.000   0.000   0.000  -0.000   0.000   0.000  -0.038   0.000   0.000
  0.007   0.000  -0.000   0.000   0.000   0.023   0.000  -0.000   0.000   0.000   0.000  -0.000  -0.000   0.000  -0.032   0.000


------------------------ aborting loop because EDIFF is reached ----------------------------------------


    CHARGE:  cpu time    0.0200: real time    0.0203
    FORLOC:  cpu time    0.0050: real time    0.0048
    FORNL :  cpu time    0.0310: real time    0.0308
    STRESS:  cpu time    0.1690: real time    0.1691
    FORCOR:  cpu time    0.0560: real time    0.0566
    FORHAR:  cpu time    0.0130: real time    0.0131
    MIXING:  cpu time    0.0030: real time    0.0030
    OFIELD:  cpu time    0.0000: real time    0.0000

  DFT-D2 method for vdW energy calculation
  -------------------------------------------------------------------

  Parameters of vdW forcefield:
         C6(Jnm^6/mol)     R0(A)
   -----------------------------
   Mo      24.670          1.639
   S        5.570          1.683

  IVDW =   1
  VDW_RADIUS =    50.000 A
  VDW_S6 =     0.750
  VDW_SR =     1.000
  VDW_D =    20.000
  LVDW_EWALD = F

  Number of pair interactions contributing to vdW energy:   11979
  Edisp (eV):   -0.59080
    FORVDW:  cpu time    0.0110: real time    0.0150

  FORCE on cell =-STRESS in cart. coord.  units (eV):
  Direction    XX          YY          ZZ          XY          YZ          ZX
  --------------------------------------------------------------------------------------
  Alpha Z    10.89288    10.89288    10.89288
  Ewald    5935.52296  5935.52341 -6502.38985     0.00019     0.00000     0.00012
  Hartree  6017.38487  6017.38488 -5979.11317     0.00002    -0.00000    -0.00000
  E(xc)     -70.29977   -70.29978   -70.89772    -0.00000    -0.00000    -0.00000
  Local  -12232.01209-12232.01242 12196.45870    -0.00021    -0.00000    -0.00006
  n-local   127.15946   125.74581   131.71556    -0.24298    -0.00000    -0.00001
  augment   -25.56055   -25.56048   -26.67773     0.00007     0.00000    -0.00001
  Kinetic   236.15872   238.47096   239.77478    -7.21494     0.00001     0.00002
  Fock        0.00000     0.00000     0.00000     0.00000     0.00000     0.00000
  vdW         0.16052     0.16052    -0.13380     0.00000     0.00000    -0.00000
  -------------------------------------------------------------------------------------
  Total      -0.14362    -0.14362    -0.37034    -0.00000     0.00000     0.00000
  in kB      -0.84538    -0.84538    -2.17999    -0.00000     0.00000     0.00000
  external pressure =       -1.29 kB  Pullay stress =        0.00 kB


 VOLUME and BASIS-vectors are now :
 -----------------------------------------------------------------------------
  energy-cutoff  :      450.00
  volume of cell :      272.18
      direct lattice vectors                 reciprocal lattice vectors
     3.190315730  0.000000000  0.000000000     0.313448600  0.180969634  0.000000000
    -1.595157865  2.762894468  0.000000000     0.000000000  0.361939267  0.000000000
     0.000000000  0.000000000 30.879004300     0.000000000  0.000000000  0.032384464

  length of vectors
     3.190315730  3.190315730 30.879004300     0.361939267  0.361939267  0.032384464


 FORCES acting on ions
    electron-ion (+dipol)            ewald-force                    non-local-force                 convergence-correction
 -----------------------------------------------------------------------------------------------
   -.952E-05 -.170E-05 -.105E-04   0.931E-04 -.108E-03 0.343E-06   0.104E-16 -.694E-17 0.000E+00   0.360E-09 -.307E-09 0.853E-07
   -.853E-03 0.494E-03 0.596E+03   -.864E-04 0.538E-04 -.601E+03   -.156E-16 0.347E-17 0.481E+01   -.719E-08 0.326E-08 0.210E-02
   0.864E-03 0.494E-03 -.596E+03   -.674E-05 0.538E-04 0.601E+03   -.104E-16 0.347E-17 -.481E+01   0.792E-08 0.326E-08 -.210E-02
 -----------------------------------------------------------------------------------------------
   0.207E-05 0.986E-03 0.206E-04   0.253E-13 0.199E-13 0.000E+00   -.156E-16 0.000E+00 0.000E+00   0.109E-08 0.621E-08 0.224E-06
 
 
 POSITION                                       TOTAL-FORCE (eV/Angst)
 -----------------------------------------------------------------------------------
     -0.00000      1.84193      3.71975        -0.000000      0.000000      0.000000
      1.59516      0.92096      2.15487         0.000000     -0.000000      0.112224
      1.59516      0.92096      5.28464        -0.000000      0.000000     -0.112224
 -----------------------------------------------------------------------------------
    total drift:                                0.000002      0.000986      0.000021


--------------------------------------------------------------------------------------------------------



  FREE ENERGIE OF THE ION-ELECTRON SYSTEM (eV)
  ---------------------------------------------------
  free  energy   TOTEN  =       -22.38641183 eV

  energy  without entropy=      -22.38641183  energy(sigma->0) =      -22.38641183
 


--------------------------------------------------------------------------------------------------------


    POTLOK:  cpu time    0.0550: real time    0.0540


--------------------------------------------------------------------------------------------------------


     LOOP+:  cpu time    5.5532: real time    5.6758
    4ORBIT:  cpu time    0.0000: real time    0.0000
 BZINTS: Fermi energy: -3.763476; 18.000000 electrons
         Band energy:-157.465575;  BLOECHL correction:  0.000000

 total amount of memory used by VASP MPI-rank0    49747. kBytes
=======================================================================

   base      :      30000. kBytes
   nonl-proj :       6175. kBytes
   fftplans  :       4304. kBytes
   grid      :       6871. kBytes
   one-center:         31. kBytes
   wavefun   :       2366. kBytes
 
  
  
 General timing and accounting informations for this job:
 ========================================================
  
                  Total CPU time used (sec):        6.717
                            User time (sec):        6.439
                          System time (sec):        0.278
                         Elapsed time (sec):        7.299
  
                   Maximum memory used (kb):       45776.
                   Average memory used (kb):           0.
  
                          Minor page faults:        16629
                          Major page faults:          184
                 Voluntary context switches:         2679
