perl: warning: Setting locale failed.
perl: warning: Please check that your locale settings:
	LANGUAGE = (unset),
	LC_ALL = (unset),
	LC_CTYPE = "UTF-8",
	LANG = "en_US.iso885915"
    are supported and installed on your system.
perl: warning: Falling back to the standard locale ("C").
Starting job 28532152 ("jobname") on c18-16 at Fri Nov 8 11:19:07 CET 2019
 running on    4 total cores
 distrk:  each k-point on    4 cores,    1 groups
 distr:  one band on    2 cores,    2 groups
 using from now: INCAR     
 vasp.5.4.4.18Apr17-6-g9f103f2a35 (build Jun 30 2017 11:15:00) complex          
  
 POSCAR found type information on POSCAR  Mo S 
 POSCAR found :  2 types and       3 ions
 scaLAPACK will be used
 LDA part: xc-table for Pade appr. of Perdew
 POSCAR, INCAR and KPOINTS ok, starting setup
 FFT: planning ...
 WAVECAR not read
 WARNING: random wavefunctions but no delay for mixing, default for NELMDL
 entering main loop
       N       E                     dE             d eps       ncg     rms          rms(c)
DAV:   1     0.150226383548E+03    0.15023E+03   -0.66004E+03   196   0.109E+03
DAV:   2    -0.496364826203E+01   -0.15519E+03   -0.14507E+03   356   0.174E+02
DAV:   3    -0.230074024816E+02   -0.18044E+02   -0.17876E+02   270   0.767E+01
DAV:   4    -0.233965758782E+02   -0.38917E+00   -0.38699E+00   256   0.139E+01
DAV:   5    -0.234073246373E+02   -0.10749E-01   -0.10745E-01   258   0.226E+00    0.689E+00
RMM:   6    -0.222465156736E+02    0.11608E+01   -0.54391E+00   207   0.125E+01    0.261E+00
RMM:   7    -0.218633929582E+02    0.38312E+00   -0.55828E-01   205   0.341E+00    0.150E+00
RMM:   8    -0.218033461997E+02    0.60047E-01   -0.23149E-01   213   0.253E+00    0.354E-01
RMM:   9    -0.217984807512E+02    0.48654E-02   -0.88856E-03   235   0.613E-01    0.963E-02
RMM:  10    -0.217977142128E+02    0.76654E-03   -0.17186E-03   232   0.222E-01    0.446E-02
RMM:  11    -0.217976436217E+02    0.70591E-04   -0.16340E-03   222   0.192E-01    0.548E-02
RMM:  12    -0.217974730918E+02    0.17053E-03   -0.52587E-04   212   0.130E-01    0.176E-02
RMM:  13    -0.217978129322E+02   -0.33984E-03   -0.16420E-04   200   0.733E-02    0.205E-02
RMM:  14    -0.217978658003E+02   -0.52868E-04   -0.26319E-05   180   0.281E-02    0.489E-03
RMM:  15    -0.217979931075E+02   -0.12731E-03   -0.11156E-05   133   0.175E-02    0.261E-03
RMM:  16    -0.217980340255E+02   -0.40918E-04   -0.26134E-06   117   0.834E-03    0.148E-03
RMM:  17    -0.217980653388E+02   -0.31313E-04   -0.24468E-06   100   0.708E-03    0.109E-03
RMM:  18    -0.217980698483E+02   -0.45095E-05   -0.44461E-07    59   0.411E-03
 Error reading item 'IVDW' from file INCAR
   1 F= -.21798070E+02 E0= -.21798070E+02  d E =0.000000E+00

Currently Loaded Modulefiles:
  1) Anaconda3/5.1.0       3) vesta/3.3.8           5) intel/2016.1
  2) gnuplot/5.0.4         4) imagemagick/6.7.9-0   6) vasp/5.4.1.Feb16

Job script resource usage:
       JobID  MaxVMSize     MaxRSS 
------------ ---------- ---------- 
28532152.ba+    216888K      2334K 

Job step resource usage:
       JobID    JobName  AllocCPUS  MaxVMSize     MaxRSS    Elapsed ExitCode 
------------ ---------- ---------- ---------- ---------- ---------- -------- 
28532152        jobname          4                         00:00:14      0:0 
28532152.0    pmi_proxy          1    279832K       529K   00:00:12      0:0 

Job 28532152 ("jobname") completed on c18-16 at Fri Nov 8 11:19:19 CET 2019
