perl: warning: Setting locale failed.
perl: warning: Please check that your locale settings:
	LANGUAGE = (unset),
	LC_ALL = (unset),
	LC_CTYPE = "UTF-8",
	LANG = "en_US.iso885915"
    are supported and installed on your system.
perl: warning: Falling back to the standard locale ("C").
Starting job 28531324 ("jobname") on c15-18 at Fri Nov 8 09:50:34 CET 2019
 running on    4 total cores
 distrk:  each k-point on    4 cores,    1 groups
 distr:  one band on    2 cores,    2 groups
 using from now: INCAR     
 vasp.5.4.4.18Apr17-6-g9f103f2a35 (build Jun 30 2017 11:15:00) complex          
  
 POSCAR found type information on POSCAR  Mo S 
 POSCAR found :  2 types and       6 ions
 scaLAPACK will be used
 LDA part: xc-table for Pade appr. of Perdew
 POSCAR, INCAR and KPOINTS ok, starting setup
 FFT: planning ...
 WAVECAR not read
 entering main loop
       N       E                     dE             d eps       ncg     rms          rms(c)
DAV:   1     0.282938387151E+03    0.28294E+03   -0.15948E+04   308   0.156E+03
DAV:   2    -0.142990328393E+02   -0.29724E+03   -0.29002E+03   454   0.285E+02
DAV:   3    -0.456040007347E+02   -0.31305E+02   -0.31059E+02   378   0.944E+01
DAV:   4    -0.467797360067E+02   -0.11757E+01   -0.11720E+01   436   0.197E+01
DAV:   5    -0.468168137120E+02   -0.37078E-01   -0.37059E-01   396   0.310E+00    0.973E+00
RMM:   6    -0.444315756785E+02    0.23852E+01   -0.24069E+01   346   0.196E+01    0.335E+00
RMM:   7    -0.436934781986E+02    0.73810E+00   -0.20705E+00   344   0.580E+00    0.178E+00
RMM:   8    -0.436289998464E+02    0.64478E-01   -0.81257E-01   362   0.332E+00    0.800E-01
RMM:   9    -0.436134414598E+02    0.15558E-01   -0.23704E-01   381   0.209E+00    0.468E-01
RMM:  10    -0.436019249569E+02    0.11517E-01   -0.28557E-02   377   0.840E-01    0.623E-02
RMM:  11    -0.436021143544E+02   -0.18940E-03   -0.60848E-03   420   0.246E-01    0.488E-02
RMM:  12    -0.436020360608E+02    0.78294E-04   -0.13855E-03   377   0.174E-01    0.289E-02
RMM:  13    -0.436020422366E+02   -0.61758E-05   -0.17193E-04   349   0.516E-02    0.140E-02
RMM:  14    -0.436021421035E+02   -0.99867E-04   -0.20571E-04   391   0.585E-02    0.171E-02
RMM:  15    -0.436021613845E+02   -0.19281E-04   -0.12629E-04   363   0.520E-02    0.976E-03
RMM:  16    -0.436021875910E+02   -0.26206E-04   -0.25172E-05   243   0.215E-02    0.310E-03
RMM:  17    -0.436022399297E+02   -0.52339E-04   -0.96055E-06   233   0.147E-02    0.255E-03
RMM:  18    -0.436022782310E+02   -0.38301E-04   -0.42918E-06   224   0.106E-02    0.781E-04
RMM:  19    -0.436022969173E+02   -0.18686E-04   -0.26370E-06   153   0.587E-03    0.684E-04
RMM:  20    -0.436023016212E+02   -0.47039E-05   -0.11364E-06   130   0.461E-03
 Error reading item 'IVDW' from file INCAR
   1 F= -.43602302E+02 E0= -.43602302E+02  d E =0.000000E+00

Currently Loaded Modulefiles:
  1) Anaconda3/5.1.0       3) vesta/3.3.8           5) intel/2016.1
  2) gnuplot/5.0.4         4) imagemagick/6.7.9-0   6) vasp/5.4.1.Feb16

Job script resource usage:
       JobID  MaxVMSize     MaxRSS 
------------ ---------- ---------- 
28531324.ba+    216888K      2401K 

Job step resource usage:
       JobID    JobName  AllocCPUS  MaxVMSize     MaxRSS    Elapsed ExitCode 
------------ ---------- ---------- ---------- ---------- ---------- -------- 
28531324        jobname          4                         00:00:23      0:0 
28531324.0    pmi_proxy          1    279832K       522K   00:00:17      0:0 

Job 28531324 ("jobname") completed on c15-18 at Fri Nov 8 09:50:51 CET 2019
