<?xml version="1.0" encoding="ISO-8859-1"?>
<modeling>
 <generator>
  <i name="program" type="string">vasp </i>
  <i name="version" type="string">5.4.4.18Apr17-6-g9f103f2a35  </i>
  <i name="subversion" type="string">(build Jun 30 2017 11:15:00) complex            parallel </i>
  <i name="platform" type="string">STALLO_VASP_5.4.4 </i>
  <i name="date" type="string">2019 11 08 </i>
  <i name="time" type="string">12:20:45 </i>
 </generator>
 <incar>
  <i type="string" name="PREC">normal    ! low/normal/accurate</i>
  <i type="string" name="ALGO"> Fast      ! Algorithm for electronic re</i>
  <i type="int" name="ISPIN">     1</i>
  <i type="int" name="NELMIN">     4</i>
  <i name="EDIFF">      0.00001000</i>
  <i type="int" name="NSW">     0</i>
  <i name="ENCUT">    450.00000000</i>
  <i type="logical" name="LREAL"> F  </i>
  <i type="int" name="ISMEAR">    -5</i>
  <i name="SIGMA">      0.20000000</i>
  <i type="logical" name="LWAVE"> F  </i>
  <v type="int" name="KPOINT_BSE">    -1     0     0     0</v>
 </incar>
 <structure name="primitive_cell" >
  <crystal>
   <varray name="basis" >
    <v>       3.19031573       0.00000000       0.00000000 </v>
    <v>      -1.59515786       2.76289447       0.00000000 </v>
    <v>       0.00000000       0.00000000      30.87900430 </v>
   </varray>
   <i name="volume">    272.18315887 </i>
   <varray name="rec_basis" >
    <v>       0.31344860       0.18096963       0.00000000 </v>
    <v>       0.00000000       0.36193927       0.00000000 </v>
    <v>       0.00000000       0.00000000       0.03238446 </v>
   </varray>
  </crystal>
  <varray name="positions" >
   <v>       0.33333300      -0.33333300       0.12046214 </v>
   <v>      -0.33333400       0.33333300       0.17114009 </v>
   <v>      -0.33333300       0.33333300       0.06978420 </v>
  </varray>
 </structure>
 <varray name="primitive_index" >
  <v type="int" >        1 </v>
  <v type="int" >        3 </v>
  <v type="int" >        2 </v>
 </varray>
 <kpoints>
  <generation param="Gamma">
   <v type="int" name="divisions">       6        6        1 </v>
   <v name="usershift">      0.00000000       0.00000000       0.00000000 </v>
   <v name="genvec1">      0.16666667       0.00000000       0.00000000 </v>
   <v name="genvec2">      0.00000000       0.16666667       0.00000000 </v>
   <v name="genvec3">      0.00000000       0.00000000       1.00000000 </v>
   <v name="shift">      0.00000000       0.00000000       0.00000000 </v>
  </generation>
  <varray name="kpointlist" >
   <v>       0.00000000       0.00000000       0.00000000 </v>
   <v>       0.16666667       0.00000000       0.00000000 </v>
   <v>       0.33333333       0.00000000       0.00000000 </v>
   <v>       0.50000000      -0.00000000       0.00000000 </v>
   <v>       0.16666667       0.16666667       0.00000000 </v>
   <v>       0.33333333       0.16666667       0.00000000 </v>
   <v>       0.33333333       0.33333333       0.00000000 </v>
  </varray>
  <varray name="weights" >
   <v>       0.02777778 </v>
   <v>       0.16666667 </v>
   <v>       0.16666667 </v>
   <v>       0.08333333 </v>
   <v>       0.16666667 </v>
   <v>       0.33333333 </v>
   <v>       0.05555556 </v>
  </varray>
  <varray name="tetrahedronlist"  type="int" >
   <v type="int" >       12        2        2        2        5 </v>
   <v type="int" >       12        1        2        2        2 </v>
   <v type="int" >        6        1        1        2        2 </v>
   <v type="int" >        6        2        2        5        5 </v>
   <v type="int" >       12        3        5        5        6 </v>
   <v type="int" >       12        2        3        5        5 </v>
   <v type="int" >       12        2        2        3        5 </v>
   <v type="int" >       12        3        5        6        6 </v>
   <v type="int" >       12        3        3        5        6 </v>
   <v type="int" >       12        2        3        3        5 </v>
   <v type="int" >       12        4        6        6        6 </v>
   <v type="int" >       12        3        4        6        6 </v>
   <v type="int" >       12        3        3        4        6 </v>
   <v type="int" >        6        4        4        6        6 </v>
   <v type="int" >       12        3        4        4        6 </v>
   <v type="int" >       24        6        6        6        7 </v>
   <v type="int" >       12        5        6        6        6 </v>
   <v type="int" >        6        5        5        6        6 </v>
   <v type="int" >       12        6        6        7        7 </v>
  </varray>
  <i name="volumeweight">      0.00462963 </i>
 </kpoints>
 <parameters>
  <separator name="general" >
   <i type="string" name="SYSTEM">unknown system</i>
   <i type="logical" name="LCOMPAT"> F  </i>
  </separator>
  <separator name="electronic" >
   <i type="string" name="PREC">normal</i>
   <i name="ENMAX">    450.00000000</i>
   <i name="ENAUG">    345.27800000</i>
   <i name="EDIFF">      0.00001000</i>
   <i type="int" name="IALGO">    68</i>
   <i type="int" name="IWAVPR">    10</i>
   <i type="int" name="NBANDS">    14</i>
   <i name="NELECT">     18.00000000</i>
   <i type="int" name="TURBO">     0</i>
   <i type="int" name="IRESTART">     0</i>
   <i type="int" name="NREBOOT">     0</i>
   <i type="int" name="NMIN">     0</i>
   <i name="EREF">      0.00000000</i>
   <separator name="electronic smearing" >
    <i type="int" name="ISMEAR">    -5</i>
    <i name="SIGMA">      0.20000000</i>
    <i name="KSPACING">      0.50000000</i>
    <i type="logical" name="KGAMMA"> T  </i>
   </separator>
   <separator name="electronic projectors" >
    <i type="logical" name="LREAL"> F  </i>
    <v name="ROPT">      0.00000000      0.00000000</v>
    <i type="int" name="LMAXPAW">  -100</i>
    <i type="int" name="LMAXMIX">     2</i>
    <i type="logical" name="NLSPLINE"> F  </i>
   </separator>
   <separator name="electronic startup" >
    <i type="int" name="ISTART">     0</i>
    <i type="int" name="ICHARG">     2</i>
    <i type="int" name="INIWAV">     1</i>
   </separator>
   <separator name="electronic spin" >
    <i type="int" name="ISPIN">     1</i>
    <i type="logical" name="LNONCOLLINEAR"> F  </i>
    <v name="MAGMOM">      1.00000000      1.00000000      1.00000000</v>
    <i name="NUPDOWN">     -1.00000000</i>
    <i type="logical" name="LSORBIT"> F  </i>
    <v name="SAXIS">      0.00000000      0.00000000      1.00000000</v>
    <i type="logical" name="LSPIRAL"> F  </i>
    <v name="QSPIRAL">      0.00000000      0.00000000      0.00000000</v>
    <i type="logical" name="LZEROZ"> F  </i>
   </separator>
   <separator name="electronic exchange-correlation" >
    <i type="logical" name="LASPH"> F  </i>
    <i type="logical" name="LMETAGGA"> F  </i>
   </separator>
   <separator name="electronic convergence" >
    <i type="int" name="NELM">    60</i>
    <i type="int" name="NELMDL">     0</i>
    <i type="int" name="NELMIN">     4</i>
    <i name="ENINI">    450.00000000</i>
    <separator name="electronic convergence detail" >
     <i type="logical" name="LDIAG"> T  </i>
     <i type="logical" name="LSUBROT"> F  </i>
     <i name="WEIMIN">      0.00000000</i>
     <i name="EBREAK">      0.00000018</i>
     <i name="DEPER">      0.30000000</i>
     <i type="int" name="NRMM">     4</i>
     <i name="TIME">      0.40000000</i>
    </separator>
   </separator>
   <separator name="electronic mixer" >
    <i name="AMIX">      0.40000000</i>
    <i name="BMIX">      1.00000000</i>
    <i name="AMIN">      0.10000000</i>
    <i name="AMIX_MAG">      1.60000000</i>
    <i name="BMIX_MAG">      1.00000000</i>
    <separator name="electronic mixer details" >
     <i type="int" name="IMIX">     4</i>
     <i type="logical" name="MIXFIRST"> F  </i>
     <i type="int" name="MAXMIX">   -45</i>
     <i name="WC">    100.00000000</i>
     <i type="int" name="INIMIX">     1</i>
     <i type="int" name="MIXPRE">     1</i>
     <i type="int" name="MREMOVE">     5</i>
    </separator>
   </separator>
   <separator name="electronic dipolcorrection" >
    <i type="logical" name="LDIPOL"> F  </i>
    <i type="logical" name="LMONO"> F  </i>
    <i type="int" name="IDIPOL">     0</i>
    <i name="EPSILON">      1.00000000</i>
    <v name="DIPOL">   -100.00000000   -100.00000000   -100.00000000</v>
    <i name="EFIELD">      0.00000000</i>
   </separator>
  </separator>
  <separator name="grids" >
   <i type="int" name="NGX">    18</i>
   <i type="int" name="NGY">    18</i>
   <i type="int" name="NGZ">   160</i>
   <i type="int" name="NGXF">    36</i>
   <i type="int" name="NGYF">    36</i>
   <i type="int" name="NGZF">   320</i>
   <i type="logical" name="ADDGRID"> F  </i>
  </separator>
  <separator name="ionic" >
   <i type="int" name="NSW">     0</i>
   <i type="int" name="IBRION">    -1</i>
   <i type="int" name="MDALGO">     0</i>
   <i type="int" name="ISIF">     2</i>
   <i name="PSTRESS">      0.00000000</i>
   <i name="EDIFFG">      0.00010000</i>
   <i type="int" name="NFREE">     0</i>
   <i name="POTIM">      0.50000000</i>
   <i name="SMASS">     -3.00000000</i>
   <i name="SCALEE">      1.00000000</i>
  </separator>
  <separator name="ionic md" >
   <i name="TEBEG">      0.00010000</i>
   <i name="TEEND">      0.00010000</i>
   <i type="int" name="NBLOCK">     1</i>
   <i type="int" name="KBLOCK">     1</i>
   <i type="int" name="NPACO">   256</i>
   <i name="APACO">     16.00000000</i>
  </separator>
  <separator name="symmetry" >
   <i type="int" name="ISYM">     2</i>
   <i name="SYMPREC">      0.00001000</i>
  </separator>
  <separator name="dos" >
   <i type="int" name="LORBIT">     0</i>
   <v name="RWIGS">     -1.00000000     -1.00000000</v>
   <i type="int" name="NEDOS">   301</i>
   <i name="EMIN">     10.00000000</i>
   <i name="EMAX">    -10.00000000</i>
   <i name="EFERMI">      0.00000000</i>
  </separator>
  <separator name="writing" >
   <i type="int" name="NWRITE">     2</i>
   <i type="logical" name="LWAVE"> F  </i>
   <i type="logical" name="LDOWNSAMPLE"> F  </i>
   <i type="logical" name="LCHARG"> T  </i>
   <i type="logical" name="LPARD"> F  </i>
   <i type="logical" name="LVTOT"> F  </i>
   <i type="logical" name="LVHAR"> F  </i>
   <i type="logical" name="LELF"> F  </i>
   <i type="logical" name="LOPTICS"> F  </i>
   <v name="STM">      0.00000000      0.00000000      0.00000000      0.00000000      0.00000000      0.00000000      0.00000000</v>
  </separator>
  <separator name="performance" >
   <i type="int" name="NPAR">     2</i>
   <i type="int" name="NSIM">     4</i>
   <i type="int" name="NBLK">    -1</i>
   <i type="logical" name="LPLANE"> T  </i>
   <i type="logical" name="LSCALAPACK"> T  </i>
   <i type="logical" name="LSCAAWARE"> F  </i>
   <i type="logical" name="LSCALU"> F  </i>
   <i type="logical" name="LASYNC"> F  </i>
   <i type="logical" name="LORBITALREAL"> F  </i>
  </separator>
  <separator name="miscellaneous" >
   <i type="int" name="IDIOT">     3</i>
   <i type="int" name="ISPECIAL">     0</i>
   <i type="logical" name="LMUSIC"> F  </i>
   <v name="POMASS">     95.94000000     32.06600000</v>
   <v name="DARWINR">      0.00000000      0.00000000</v>
   <v name="DARWINV">      1.00000000      1.00000000</v>
   <i type="logical" name="LCORR"> T  </i>
  </separator>
  <i type="logical" name="GGA_COMPAT"> T  </i>
  <i type="logical" name="LBERRY"> F  </i>
  <i type="int" name="ICORELEVEL">     0</i>
  <i type="logical" name="LDAU"> F  </i>
  <i type="int" name="I_CONSTRAINED_M">     0</i>
  <separator name="electronic exchange-correlation" >
   <i type="string" name="GGA">--</i>
   <i type="int" name="VOSKOWN">     0</i>
   <i type="logical" name="LHFCALC"> F  </i>
   <i type="string" name="PRECFOCK"></i>
   <i type="logical" name="LSYMGRAD"> F  </i>
   <i type="logical" name="LHFONE"> F  </i>
   <i type="logical" name="LRHFCALC"> F  </i>
   <i type="logical" name="LTHOMAS"> F  </i>
   <i type="logical" name="LMODELHF"> F  </i>
   <i name="ENCUT4O">     -1.00000000</i>
   <i type="int" name="EXXOEP">     0</i>
   <i type="int" name="FOURORBIT">     0</i>
   <i name="AEXX">      0.00000000</i>
   <i name="HFALPHA">      0.00000000</i>
   <i name="MCALPHA">      0.00000000</i>
   <i name="ALDAX">      1.00000000</i>
   <i name="AGGAX">      1.00000000</i>
   <i name="ALDAC">      1.00000000</i>
   <i name="AGGAC">      1.00000000</i>
   <i type="int" name="NKREDX">     1</i>
   <i type="int" name="NKREDY">     1</i>
   <i type="int" name="NKREDZ">     1</i>
   <i type="logical" name="SHIFTRED"> F  </i>
   <i type="logical" name="ODDONLY"> F  </i>
   <i type="logical" name="EVENONLY"> F  </i>
   <i type="int" name="LMAXFOCK">     0</i>
   <i type="int" name="NMAXFOCKAE">     0</i>
   <i type="logical" name="LFOCKAEDFT"> F  </i>
   <i name="HFSCREEN">      0.00000000</i>
   <i name="HFSCREENC">      0.00000000</i>
   <i type="int" name="NBANDSGWLOW">     0</i>
  </separator>
  <separator name="vdW DFT" >
   <i type="logical" name="LUSE_VDW"> F  </i>
   <i name="Zab_VDW">     -0.84910000</i>
   <i name="PARAM1">      0.12340000</i>
   <i name="PARAM2">      1.00000000</i>
   <i name="PARAM3">      0.00000000</i>
  </separator>
  <separator name="model GW" >
   <i type="int" name="MODEL_GW">     0</i>
   <i name="MODEL_EPS0">     54.43663177</i>
   <i name="MODEL_ALPHA">      1.00000000</i>
  </separator>
  <separator name="linear response parameters" >
   <i type="logical" name="LEPSILON"> F  </i>
   <i type="logical" name="LRPA"> F  </i>
   <i type="logical" name="LNABLA"> F  </i>
   <i type="logical" name="LVEL"> F  </i>
   <i type="int" name="KINTER">     0</i>
   <i name="CSHIFT">      0.10000000</i>
   <i name="OMEGAMAX">     -1.00000000</i>
   <i name="DEG_THRESHOLD">      0.00200000</i>
   <i name="RTIME">     -0.10000000</i>
   <i name="WPLASMAI">      0.00000000</i>
   <v name="DFIELD">      0.00000000      0.00000000      0.00000000</v>
   <v name="WPLASMA">      0.00000000      0.00000000      0.00000000      0.00000000      0.00000000      0.00000000      0.00000000      0.00000000      0.00000000</v>
  </separator>
  <separator name="orbital magnetization" >
   <i type="logical" name="NUCIND"> F  </i>
   <v name="MAGPOS">      0.00000000      0.00000000      0.00000000</v>
   <i type="logical" name="LNICSALL"> T  </i>
   <i type="logical" name="ORBITALMAG"> F  </i>
   <i type="logical" name="LMAGBLOCH"> F  </i>
   <i type="logical" name="LCHIMAG"> F  </i>
   <i type="logical" name="LGAUGE"> T  </i>
   <i type="int" name="MAGATOM">     0</i>
   <v name="MAGDIPOL">      0.00000000      0.00000000      0.00000000</v>
   <v name="AVECCONST">      0.00000000      0.00000000      0.00000000</v>
  </separator>
  <separator name="response functions" >
   <i type="logical" name="LADDER"> F  </i>
   <i type="logical" name="LRPAFORCE"> F  </i>
   <i type="logical" name="LFXC"> F  </i>
   <i type="logical" name="LHARTREE"> T  </i>
   <i type="int" name="IBSE">     0</i>
   <v type="int" name="KPOINT">    -1     0     0     0</v>
   <i type="logical" name="LTCTE"> F  </i>
   <i type="logical" name="LTETE"> F  </i>
   <i type="logical" name="LTRIPLET"> F  </i>
   <i type="logical" name="LFXCEPS"> F  </i>
   <i type="logical" name="LFXHEG"> F  </i>
   <i type="int" name="NATURALO">     2</i>
   <i type="logical" name="L2ORDER"> F  </i>
   <i type="logical" name="LMP2LT"> F  </i>
   <i type="logical" name="LUSEW"> F  </i>
   <i name="ENCUTGW">     -2.00000000</i>
   <i name="ENCUTGWSOFT">     -2.00000000</i>
   <i name="ENCUTLF">     -1.00000000</i>
   <i type="int" name="LMAXMP2">    -1</i>
   <i name="SCISSOR">      0.00000000</i>
   <i type="int" name="NOMEGA">     0</i>
   <i type="int" name="NOMEGAR">     0</i>
   <i type="int" name="NBANDSGW">    -1</i>
   <i type="int" name="NBANDSO">    -1</i>
   <i type="int" name="NBANDSV">    -1</i>
   <i type="int" name="NELM">     1</i>
   <i type="int" name="NELMHF">     1</i>
   <i type="int" name="DIM">     3</i>
   <i type="int" name="ANTIRES">     0</i>
   <i name="OMEGAMAX">    -30.00000000</i>
   <i name="OMEGAMIN">    -30.00000000</i>
   <i name="OMEGATL">   -200.00000000</i>
   <i type="int" name="OMEGAGRID">   140</i>
   <i name="CSHIFT">     -0.10000000</i>
   <i type="logical" name="SELFENERGY"> F  </i>
   <i type="logical" name="LSPECTRAL"> F  </i>
   <i type="logical" name="LSPECTRALGW"> F  </i>
   <i type="logical" name="LSINGLES"> F  </i>
   <i type="logical" name="LFERMIGW"> F  </i>
   <i type="logical" name="ODDONLYGW"> F  </i>
   <i type="logical" name="EVENONLYGW"> F  </i>
   <i type="int" name="NKREDLFX">     1</i>
   <i type="int" name="NKREDLFY">     1</i>
   <i type="int" name="NKREDLFZ">     1</i>
   <i type="int" name="MAXMEM">  2800</i>
   <i type="int" name="TELESCOPE">     0</i>
   <i type="int" name="TAUPAR">     1</i>
   <i type="int" name="OMEGAPAR">    -1</i>
   <i name="LAMBDA">      1.00000000</i>
  </separator>
  <separator name="External order field" >
   <i name="OFIELD_KAPPA">      0.00000000</i>
   <v name="OFIELD_K">      0.00000000      0.00000000      0.00000000</v>
   <i name="OFIELD_Q6_NEAR">      0.00000000</i>
   <i name="OFIELD_Q6_FAR">      0.00000000</i>
   <i name="OFIELD_A">      0.00000000</i>
  </separator>
 </parameters>
 <atominfo>
  <atoms>       3 </atoms>
  <types>       2 </types>
  <array name="atoms" >
   <dimension dim="1">ion</dimension>
   <field type="string">element</field>
   <field type="int">atomtype</field>
   <set>
    <rc><c>Mo</c><c>   1</c></rc>
    <rc><c>S </c><c>   2</c></rc>
    <rc><c>S </c><c>   2</c></rc>
   </set>
  </array>
  <array name="atomtypes" >
   <dimension dim="1">type</dimension>
   <field type="int">atomspertype</field>
   <field type="string">element</field>
   <field>mass</field>
   <field>valence</field>
   <field type="string">pseudopotential</field>
   <set>
    <rc><c>   1</c><c>Mo</c><c>     95.94000000</c><c>      6.00000000</c><c> PAW_PBE Mo 08Apr2002                   </c></rc>
    <rc><c>   2</c><c>S </c><c>     32.06600000</c><c>      6.00000000</c><c>  PAW_PBE S 17Jan2003                   </c></rc>
   </set>
  </array>
 </atominfo>
 <structure name="initialpos" >
  <crystal>
   <varray name="basis" >
    <v>       3.19031573       0.00000000       0.00000000 </v>
    <v>      -1.59515786       2.76289447       0.00000000 </v>
    <v>       0.00000000       0.00000000      30.87900430 </v>
   </varray>
   <i name="volume">    272.18315887 </i>
   <varray name="rec_basis" >
    <v>       0.31344860       0.18096963       0.00000000 </v>
    <v>       0.00000000       0.36193927       0.00000000 </v>
    <v>       0.00000000       0.00000000       0.03238446 </v>
   </varray>
  </crystal>
  <varray name="positions" >
   <v>       0.33333300       0.66666700       0.12046214 </v>
   <v>       0.66666700       0.33333300       0.06978420 </v>
   <v>       0.66666600       0.33333300       0.17114009 </v>
  </varray>
 </structure>
 <calculation>
  <scstep>
   <time name="dav">    0.19    0.20</time>
   <time name="total">    0.25    0.28</time>
   <energy>
    <i name="alphaZ">     10.89288288 </i>
    <i name="ewald">   5368.65661653 </i>
    <i name="hartreedc">  -6042.21104469 </i>
    <i name="XCdc">    -36.31053806 </i>
    <i name="pawpsdc">    406.88651198 </i>
    <i name="pawaedc">   -329.34073203 </i>
    <i name="eentropy">      0.00000000 </i>
    <i name="bandstr">    -20.11316484 </i>
    <i name="atom">    771.15511399 </i>
    <i name="e_fr_energy">    129.61564576 </i>
    <i name="e_wo_entrp">    129.61564576 </i>
    <i name="e_0_energy">    129.61564576 </i>
   </energy>
  </scstep>
  <scstep>
   <time name="dav">    0.29    0.29</time>
   <time name="total">    0.29    0.29</time>
   <energy>
    <i name="e_fr_energy">     -6.45342145 </i>
    <i name="e_wo_entrp">     -6.45342145 </i>
    <i name="e_0_energy">     -6.45342145 </i>
   </energy>
  </scstep>
  <scstep>
   <time name="dav">    0.25    0.25</time>
   <time name="total">    0.25    0.25</time>
   <energy>
    <i name="e_fr_energy">    -23.05766422 </i>
    <i name="e_wo_entrp">    -23.05766422 </i>
    <i name="e_0_energy">    -23.05766422 </i>
   </energy>
  </scstep>
  <scstep>
   <time name="dav">    0.22    0.22</time>
   <time name="total">    0.22    0.22</time>
   <energy>
    <i name="e_fr_energy">    -23.39656530 </i>
    <i name="e_wo_entrp">    -23.39656530 </i>
    <i name="e_0_energy">    -23.39656530 </i>
   </energy>
  </scstep>
  <scstep>
   <time name="dav">    0.25    0.25</time>
   <time name="total">    0.27    0.27</time>
   <energy>
    <i name="e_fr_energy">    -23.40533013 </i>
    <i name="e_wo_entrp">    -23.40533013 </i>
    <i name="e_0_energy">    -23.40533013 </i>
   </energy>
  </scstep>
  <scstep>
   <time name="diag">    0.04    0.04</time>
   <time name="diis">    0.16    0.16</time>
   <time name="orth">    0.00    0.00</time>
   <time name="total">    0.28    0.29</time>
   <energy>
    <i name="e_fr_energy">    -22.24395717 </i>
    <i name="e_wo_entrp">    -22.24395717 </i>
    <i name="e_0_energy">    -22.24395717 </i>
   </energy>
  </scstep>
  <scstep>
   <time name="diag">    0.04    0.04</time>
   <time name="diis">    0.16    0.16</time>
   <time name="orth">    0.00    0.00</time>
   <time name="total">    0.28    0.28</time>
   <energy>
    <i name="e_fr_energy">    -21.86095908 </i>
    <i name="e_wo_entrp">    -21.86095908 </i>
    <i name="e_0_energy">    -21.86095908 </i>
   </energy>
  </scstep>
  <scstep>
   <time name="diag">    0.04    0.04</time>
   <time name="diis">    0.17    0.17</time>
   <time name="orth">    0.00    0.00</time>
   <time name="total">    0.28    0.29</time>
   <energy>
    <i name="e_fr_energy">    -21.80088639 </i>
    <i name="e_wo_entrp">    -21.80088639 </i>
    <i name="e_0_energy">    -21.80088639 </i>
   </energy>
  </scstep>
  <scstep>
   <time name="diag">    0.04    0.04</time>
   <time name="diis">    0.19    0.19</time>
   <time name="orth">    0.00    0.00</time>
   <time name="total">    0.30    0.30</time>
   <energy>
    <i name="e_fr_energy">    -21.79599793 </i>
    <i name="e_wo_entrp">    -21.79599793 </i>
    <i name="e_0_energy">    -21.79599793 </i>
   </energy>
  </scstep>
  <scstep>
   <time name="diag">    0.04    0.04</time>
   <time name="diis">    0.18    0.19</time>
   <time name="orth">    0.00    0.00</time>
   <time name="total">    0.30    0.30</time>
   <energy>
    <i name="e_fr_energy">    -21.79524887 </i>
    <i name="e_wo_entrp">    -21.79524887 </i>
    <i name="e_0_energy">    -21.79524887 </i>
   </energy>
  </scstep>
  <scstep>
   <time name="diag">    0.04    0.04</time>
   <time name="diis">    0.18    0.18</time>
   <time name="orth">    0.00    0.00</time>
   <time name="total">    0.29    0.29</time>
   <energy>
    <i name="e_fr_energy">    -21.79517232 </i>
    <i name="e_wo_entrp">    -21.79517232 </i>
    <i name="e_0_energy">    -21.79517232 </i>
   </energy>
  </scstep>
  <scstep>
   <time name="diag">    0.04    0.04</time>
   <time name="diis">    0.17    0.17</time>
   <time name="orth">    0.00    0.00</time>
   <time name="total">    0.29    0.29</time>
   <energy>
    <i name="e_fr_energy">    -21.79501416 </i>
    <i name="e_wo_entrp">    -21.79501416 </i>
    <i name="e_0_energy">    -21.79501416 </i>
   </energy>
  </scstep>
  <scstep>
   <time name="diag">    0.04    0.04</time>
   <time name="diis">    0.16    0.16</time>
   <time name="orth">    0.00    0.00</time>
   <time name="total">    0.27    0.27</time>
   <energy>
    <i name="e_fr_energy">    -21.79535603 </i>
    <i name="e_wo_entrp">    -21.79535603 </i>
    <i name="e_0_energy">    -21.79535603 </i>
   </energy>
  </scstep>
  <scstep>
   <time name="diag">    0.04    0.04</time>
   <time name="diis">    0.15    0.15</time>
   <time name="orth">    0.00    0.00</time>
   <time name="total">    0.26    0.26</time>
   <energy>
    <i name="e_fr_energy">    -21.79541017 </i>
    <i name="e_wo_entrp">    -21.79541017 </i>
    <i name="e_0_energy">    -21.79541017 </i>
   </energy>
  </scstep>
  <scstep>
   <time name="diag">    0.04    0.04</time>
   <time name="diis">    0.12    0.12</time>
   <time name="orth">    0.00    0.00</time>
   <time name="total">    0.24    0.24</time>
   <energy>
    <i name="e_fr_energy">    -21.79553666 </i>
    <i name="e_wo_entrp">    -21.79553666 </i>
    <i name="e_0_energy">    -21.79553666 </i>
   </energy>
  </scstep>
  <scstep>
   <time name="diag">    0.04    0.04</time>
   <time name="diis">    0.11    0.11</time>
   <time name="orth">    0.00    0.00</time>
   <time name="total">    0.23    0.23</time>
   <energy>
    <i name="e_fr_energy">    -21.79557731 </i>
    <i name="e_wo_entrp">    -21.79557731 </i>
    <i name="e_0_energy">    -21.79557731 </i>
   </energy>
  </scstep>
  <scstep>
   <time name="diag">    0.04    0.04</time>
   <time name="diis">    0.11    0.11</time>
   <time name="orth">    0.00    0.00</time>
   <time name="total">    0.22    0.22</time>
   <energy>
    <i name="e_fr_energy">    -21.79560920 </i>
    <i name="e_wo_entrp">    -21.79560920 </i>
    <i name="e_0_energy">    -21.79560920 </i>
   </energy>
  </scstep>
  <scstep>
   <time name="diag">    0.04    0.04</time>
   <time name="diis">    0.09    0.09</time>
   <time name="orth">    0.00    0.00</time>
   <time name="total">    0.19    0.19</time>
   <energy>
    <i name="alphaZ">     10.89288288 </i>
    <i name="ewald">   5368.65661653 </i>
    <i name="hartreedc">  -6055.64325736 </i>
    <i name="XCdc">    -35.20072624 </i>
    <i name="pawpsdc">    472.19967109 </i>
    <i name="pawaedc">   -396.39033960 </i>
    <i name="eentropy">      0.00000000 </i>
    <i name="bandstr">   -157.46557490 </i>
    <i name="atom">    771.15511399 </i>
    <i name="e_fr_energy">    -21.79561361 </i>
    <i name="e_wo_entrp">    -21.79561361 </i>
    <i name="e_0_energy">    -21.79561361 </i>
   </energy>
  </scstep>
  <structure>
   <crystal>
    <varray name="basis" >
     <v>       3.19031573       0.00000000       0.00000000 </v>
     <v>      -1.59515786       2.76289447       0.00000000 </v>
     <v>       0.00000000       0.00000000      30.87900430 </v>
    </varray>
    <i name="volume">    272.18315887 </i>
    <varray name="rec_basis" >
     <v>       0.31344860       0.18096963       0.00000000 </v>
     <v>       0.00000000       0.36193927       0.00000000 </v>
     <v>       0.00000000       0.00000000       0.03238446 </v>
    </varray>
   </crystal>
   <varray name="positions" >
    <v>       0.33333300       0.66666700       0.12046214 </v>
    <v>       0.66666700       0.33333300       0.06978420 </v>
    <v>       0.66666600       0.33333300       0.17114009 </v>
   </varray>
  </structure>
  <varray name="forces" >
   <v>      -0.00000000       0.00000000       0.00000000 </v>
   <v>       0.00000000      -0.00000000       0.11222447 </v>
   <v>      -0.00000000       0.00000000      -0.11222447 </v>
  </varray>
  <varray name="stress" >
   <v>      -0.84537746      -0.00000000       0.00000000 </v>
   <v>      -0.00000000      -0.84537746       0.00000000 </v>
   <v>       0.00000000       0.00000000      -2.17998555 </v>
  </varray>
  <energy>
   <i name="e_fr_energy">    -22.38641183 </i>
   <i name="e_wo_entrp">    -22.38641183 </i>
   <i name="e_0_energy">      0.00000000 </i>
  </energy>
  <time name="totalsc">    5.55    5.68</time>
  <eigenvalues>
   <array>
    <dimension dim="1">band</dimension>
    <dimension dim="2">kpoint</dimension>
    <dimension dim="3">spin</dimension>
    <field>eigene</field>
    <field>occ</field>
    <set>
     <set comment="spin 1">
      <set comment="kpoint 1">
       <r>  -17.7876    1.0000 </r>
       <r>  -16.5796    1.0000 </r>
       <r>   -9.3079    1.0000 </r>
       <r>   -6.3463    1.0000 </r>
       <r>   -6.3463    1.0000 </r>
       <r>   -5.4860    1.0000 </r>
       <r>   -5.2417    1.0000 </r>
       <r>   -5.2417    1.0000 </r>
       <r>   -3.7661    1.0000 </r>
       <r>   -0.9940    0.0000 </r>
       <r>   -0.9940    0.0000 </r>
       <r>   -0.7696    0.0000 </r>
       <r>   -0.7696    0.0000 </r>
       <r>    1.6645    0.0000 </r>
      </set>
      <set comment="kpoint 2">
       <r>  -17.4152    1.0000 </r>
       <r>  -16.4018    1.0000 </r>
       <r>   -8.9069    1.0000 </r>
       <r>   -7.0859    1.0000 </r>
       <r>   -6.6184    1.0000 </r>
       <r>   -5.9427    1.0000 </r>
       <r>   -5.7838    1.0000 </r>
       <r>   -4.8156    1.0000 </r>
       <r>   -4.0508    1.0000 </r>
       <r>   -1.4673    0.0000 </r>
       <r>   -1.1982    0.0000 </r>
       <r>   -1.1495    0.0000 </r>
       <r>   -0.4287    0.0000 </r>
       <r>    2.2661    0.0000 </r>
      </set>
      <set comment="kpoint 3">
       <r>  -16.5419    1.0000 </r>
       <r>  -15.9952    1.0000 </r>
       <r>   -8.9360    1.0000 </r>
       <r>   -7.8876    1.0000 </r>
       <r>   -7.6360    1.0000 </r>
       <r>   -6.5741    1.0000 </r>
       <r>   -5.3581    1.0000 </r>
       <r>   -5.1043    1.0000 </r>
       <r>   -4.7134    1.0000 </r>
       <r>   -1.5783    0.0000 </r>
       <r>   -1.4469    0.0000 </r>
       <r>   -0.3819    0.0000 </r>
       <r>    0.2741    0.0000 </r>
       <r>    3.4741    0.0000 </r>
      </set>
      <set comment="kpoint 4">
       <r>  -16.0013    1.0000 </r>
       <r>  -15.7565    1.0000 </r>
       <r>   -9.4671    1.0000 </r>
       <r>   -8.5071    1.0000 </r>
       <r>   -7.7960    1.0000 </r>
       <r>   -6.8903    1.0000 </r>
       <r>   -5.6081    1.0000 </r>
       <r>   -4.7079    1.0000 </r>
       <r>   -4.3860    1.0000 </r>
       <r>   -1.5794    0.0000 </r>
       <r>   -1.0649    0.0000 </r>
       <r>    0.1373    0.0000 </r>
       <r>    0.4865    0.0000 </r>
       <r>    2.4169    0.0000 </r>
      </set>
      <set comment="kpoint 5">
       <r>  -16.7843    1.0000 </r>
       <r>  -16.1020    1.0000 </r>
       <r>   -8.6359    1.0000 </r>
       <r>   -7.5441    1.0000 </r>
       <r>   -7.3718    1.0000 </r>
       <r>   -6.9024    1.0000 </r>
       <r>   -5.7035    1.0000 </r>
       <r>   -4.7931    1.0000 </r>
       <r>   -4.5369    1.0000 </r>
       <r>   -1.8300    0.0000 </r>
       <r>   -1.3160    0.0000 </r>
       <r>   -1.1079    0.0000 </r>
       <r>    0.3594    0.0000 </r>
       <r>    3.2486    0.0000 </r>
      </set>
      <set comment="kpoint 6">
       <r>  -16.0240    1.0000 </r>
       <r>  -15.7431    1.0000 </r>
       <r>   -9.0111    1.0000 </r>
       <r>   -8.5904    1.0000 </r>
       <r>   -7.5632    1.0000 </r>
       <r>   -6.9339    1.0000 </r>
       <r>   -6.0921    1.0000 </r>
       <r>   -5.4563    1.0000 </r>
       <r>   -4.2399    1.0000 </r>
       <r>   -1.5823    0.0000 </r>
       <r>   -1.0281    0.0000 </r>
       <r>   -0.4473    0.0000 </r>
       <r>    0.6388    0.0000 </r>
       <r>    3.2752    0.0000 </r>
      </set>
      <set comment="kpoint 7">
       <r>  -15.7506    1.0000 </r>
       <r>  -15.5909    1.0000 </r>
       <r>   -9.0971    1.0000 </r>
       <r>   -8.2883    1.0000 </r>
       <r>   -7.7939    1.0000 </r>
       <r>   -7.3039    1.0000 </r>
       <r>   -6.6230    1.0000 </r>
       <r>   -5.8944    1.0000 </r>
       <r>   -3.7675    1.0000 </r>
       <r>   -2.1091    0.0000 </r>
       <r>   -0.7274    0.0000 </r>
       <r>   -0.2772    0.0000 </r>
       <r>    1.0509    0.0000 </r>
       <r>    3.4804    0.0000 </r>
      </set>
     </set>
    </set>
   </array>
  </eigenvalues>
  <separator name="orbital magnetization" >
   <v name="MAGDIPOLOUT">      0.00000000      0.00000000      0.00000000</v>
  </separator>
  <dos>
   <i name="efermi">     -3.76347552 </i>
   <total>
    <array>
     <dimension dim="1">gridpoints</dimension>
     <dimension dim="2">spin</dimension>
     <field>energy</field>
     <field>total</field>
     <field>integrated</field>
     <set>
      <set comment="spin 1">
       <r>   -19.7876     0.0000     0.0000 </r>
       <r>   -19.7034     0.0000     0.0000 </r>
       <r>   -19.6192     0.0000     0.0000 </r>
       <r>   -19.5349     0.0000     0.0000 </r>
       <r>   -19.4507     0.0000     0.0000 </r>
       <r>   -19.3665     0.0000     0.0000 </r>
       <r>   -19.2823     0.0000     0.0000 </r>
       <r>   -19.1980     0.0000     0.0000 </r>
       <r>   -19.1138     0.0000     0.0000 </r>
       <r>   -19.0296     0.0000     0.0000 </r>
       <r>   -18.9454     0.0000     0.0000 </r>
       <r>   -18.8611     0.0000     0.0000 </r>
       <r>   -18.7769     0.0000     0.0000 </r>
       <r>   -18.6927     0.0000     0.0000 </r>
       <r>   -18.6084     0.0000     0.0000 </r>
       <r>   -18.5242     0.0000     0.0000 </r>
       <r>   -18.4400     0.0000     0.0000 </r>
       <r>   -18.3558     0.0000     0.0000 </r>
       <r>   -18.2715     0.0000     0.0000 </r>
       <r>   -18.1873     0.0000     0.0000 </r>
       <r>   -18.1031     0.0000     0.0000 </r>
       <r>   -18.0189     0.0000     0.0000 </r>
       <r>   -17.9346     0.0000     0.0000 </r>
       <r>   -17.8504     0.0000     0.0000 </r>
       <r>   -17.7662     0.0515     0.0006 </r>
       <r>   -17.6820     0.2539     0.0134 </r>
       <r>   -17.5977     0.4563     0.0433 </r>
       <r>   -17.5135     0.6587     0.0903 </r>
       <r>   -17.4293     0.8611     0.1543 </r>
       <r>   -17.3450     0.5545     0.2046 </r>
       <r>   -17.2608     0.5859     0.2527 </r>
       <r>   -17.1766     0.6172     0.3033 </r>
       <r>   -17.0924     0.6486     0.3566 </r>
       <r>   -17.0081     0.6800     0.4126 </r>
       <r>   -16.9239     0.7114     0.4712 </r>
       <r>   -16.8397     0.7428     0.5324 </r>
       <r>   -16.7555     0.7935     0.5966 </r>
       <r>   -16.6712     0.8815     0.6671 </r>
       <r>   -16.5870     0.9695     0.7451 </r>
       <r>   -16.5028     1.8764     0.8617 </r>
       <r>   -16.4186     2.8716     1.0617 </r>
       <r>   -16.3343     2.5098     1.2739 </r>
       <r>   -16.2501     2.7646     1.4960 </r>
       <r>   -16.1659     3.0193     1.7396 </r>
       <r>   -16.0816     3.3325     2.0052 </r>
       <r>   -15.9974     4.3251     2.5043 </r>
       <r>   -15.9132     4.1005     2.8590 </r>
       <r>   -15.8290     3.8796     3.1951 </r>
       <r>   -15.7447    23.0822     3.6269 </r>
       <r>   -15.6605     2.0031     3.9303 </r>
       <r>   -15.5763     0.0000     4.0000 </r>
       <r>   -15.4921     0.0000     4.0000 </r>
       <r>   -15.4078     0.0000     4.0000 </r>
       <r>   -15.3236     0.0000     4.0000 </r>
       <r>   -15.2394     0.0000     4.0000 </r>
       <r>   -15.1551     0.0000     4.0000 </r>
       <r>   -15.0709     0.0000     4.0000 </r>
       <r>   -14.9867     0.0000     4.0000 </r>
       <r>   -14.9025     0.0000     4.0000 </r>
       <r>   -14.8182     0.0000     4.0000 </r>
       <r>   -14.7340     0.0000     4.0000 </r>
       <r>   -14.6498     0.0000     4.0000 </r>
       <r>   -14.5656     0.0000     4.0000 </r>
       <r>   -14.4813     0.0000     4.0000 </r>
       <r>   -14.3971     0.0000     4.0000 </r>
       <r>   -14.3129     0.0000     4.0000 </r>
       <r>   -14.2287     0.0000     4.0000 </r>
       <r>   -14.1444     0.0000     4.0000 </r>
       <r>   -14.0602     0.0000     4.0000 </r>
       <r>   -13.9760     0.0000     4.0000 </r>
       <r>   -13.8917     0.0000     4.0000 </r>
       <r>   -13.8075     0.0000     4.0000 </r>
       <r>   -13.7233     0.0000     4.0000 </r>
       <r>   -13.6391     0.0000     4.0000 </r>
       <r>   -13.5548     0.0000     4.0000 </r>
       <r>   -13.4706     0.0000     4.0000 </r>
       <r>   -13.3864     0.0000     4.0000 </r>
       <r>   -13.3022     0.0000     4.0000 </r>
       <r>   -13.2179     0.0000     4.0000 </r>
       <r>   -13.1337     0.0000     4.0000 </r>
       <r>   -13.0495     0.0000     4.0000 </r>
       <r>   -12.9653     0.0000     4.0000 </r>
       <r>   -12.8810     0.0000     4.0000 </r>
       <r>   -12.7968     0.0000     4.0000 </r>
       <r>   -12.7126     0.0000     4.0000 </r>
       <r>   -12.6283     0.0000     4.0000 </r>
       <r>   -12.5441     0.0000     4.0000 </r>
       <r>   -12.4599     0.0000     4.0000 </r>
       <r>   -12.3757     0.0000     4.0000 </r>
       <r>   -12.2914     0.0000     4.0000 </r>
       <r>   -12.2072     0.0000     4.0000 </r>
       <r>   -12.1230     0.0000     4.0000 </r>
       <r>   -12.0388     0.0000     4.0000 </r>
       <r>   -11.9545     0.0000     4.0000 </r>
       <r>   -11.8703     0.0000     4.0000 </r>
       <r>   -11.7861     0.0000     4.0000 </r>
       <r>   -11.7019     0.0000     4.0000 </r>
       <r>   -11.6176     0.0000     4.0000 </r>
       <r>   -11.5334     0.0000     4.0000 </r>
       <r>   -11.4492     0.0000     4.0000 </r>
       <r>   -11.3649     0.0000     4.0000 </r>
       <r>   -11.2807     0.0000     4.0000 </r>
       <r>   -11.1965     0.0000     4.0000 </r>
       <r>   -11.1123     0.0000     4.0000 </r>
       <r>   -11.0280     0.0000     4.0000 </r>
       <r>   -10.9438     0.0000     4.0000 </r>
       <r>   -10.8596     0.0000     4.0000 </r>
       <r>   -10.7754     0.0000     4.0000 </r>
       <r>   -10.6911     0.0000     4.0000 </r>
       <r>   -10.6069     0.0000     4.0000 </r>
       <r>   -10.5227     0.0000     4.0000 </r>
       <r>   -10.4384     0.0000     4.0000 </r>
       <r>   -10.3542     0.0000     4.0000 </r>
       <r>   -10.2700     0.0000     4.0000 </r>
       <r>   -10.1858     0.0000     4.0000 </r>
       <r>   -10.1015     0.0000     4.0000 </r>
       <r>   -10.0173     0.0000     4.0000 </r>
       <r>    -9.9331     0.0000     4.0000 </r>
       <r>    -9.8489     0.0000     4.0000 </r>
       <r>    -9.7646     0.0000     4.0000 </r>
       <r>    -9.6804     0.0000     4.0000 </r>
       <r>    -9.5962     0.0000     4.0000 </r>
       <r>    -9.5120     0.0000     4.0000 </r>
       <r>    -9.4277     0.1715     4.0034 </r>
       <r>    -9.3435     0.5384     4.0333 </r>
       <r>    -9.2593     1.0061     4.0965 </r>
       <r>    -9.1750     1.5476     4.2041 </r>
       <r>    -9.0908     2.6542     4.3590 </r>
       <r>    -9.0066     2.7888     4.8900 </r>
       <r>    -8.9224     4.2126     5.1544 </r>
       <r>    -8.8381     4.2524     5.5700 </r>
       <r>    -8.7539     2.4814     5.8536 </r>
       <r>    -8.6697     0.7103     5.9880 </r>
       <r>    -8.5855     6.3105     6.0318 </r>
       <r>    -8.5012     2.8672     6.4102 </r>
       <r>    -8.4170     2.1738     6.6225 </r>
       <r>    -8.3328     1.4804     6.7764 </r>
       <r>    -8.2486     1.0771     6.8777 </r>
       <r>    -8.1643     0.9989     6.9651 </r>
       <r>    -8.0801     0.9206     7.0459 </r>
       <r>    -7.9959     0.8423     7.1202 </r>
       <r>    -7.9116     0.7641     7.1878 </r>
       <r>    -7.8274     0.7575     7.2511 </r>
       <r>    -7.7432     2.6838     7.3654 </r>
       <r>    -7.6590     5.7858     7.7221 </r>
       <r>    -7.5747     7.6583     8.3024 </r>
       <r>    -7.4905     3.8259     8.7229 </r>
       <r>    -7.4063     2.1389     8.9741 </r>
       <r>    -7.3221     1.4223     9.1073 </r>
       <r>    -7.2378     1.7010     9.2359 </r>
       <r>    -7.1536     2.0683     9.3946 </r>
       <r>    -7.0694     2.1523     9.5797 </r>
       <r>    -6.9852     2.4873     9.7751 </r>
       <r>    -6.9009     5.9756    10.3151 </r>
       <r>    -6.8167     3.7883    10.6765 </r>
       <r>    -6.7325     2.9530    10.9604 </r>
       <r>    -6.6482     2.1178    11.1740 </r>
       <r>    -6.5640     2.0582    11.3580 </r>
       <r>    -6.4798     1.7648    11.5190 </r>
       <r>    -6.3956     1.4715    11.6553 </r>
       <r>    -6.3113     1.3567    11.7700 </r>
       <r>    -6.2271     1.4937    11.8901 </r>
       <r>    -6.1429     1.6307    12.0216 </r>
       <r>    -6.0587     1.9989    12.1735 </r>
       <r>    -5.9744     1.9858    12.3413 </r>
       <r>    -5.8902     2.3248    12.5269 </r>
       <r>    -5.8060     2.5319    12.7315 </r>
       <r>    -5.7217     5.4365    13.1850 </r>
       <r>    -5.6375     4.4797    13.5876 </r>
       <r>    -5.5533     3.7532    13.9377 </r>
       <r>    -5.4691     2.9333    14.2183 </r>
       <r>    -5.3848     1.6875    14.3959 </r>
       <r>    -5.3006     1.6427    14.5278 </r>
       <r>    -5.2164     1.9622    14.6774 </r>
       <r>    -5.1322     2.4566    14.8635 </r>
       <r>    -5.0479     2.7568    15.0858 </r>
       <r>    -4.9637     2.9611    15.3266 </r>
       <r>    -4.8795     3.1655    15.5846 </r>
       <r>    -4.7953     1.8911    15.9874 </r>
       <r>    -4.7110     0.0524    16.0000 </r>
       <r>    -4.6268     1.5570    16.0675 </r>
       <r>    -4.5426     3.0707    16.2623 </r>
       <r>    -4.4583     3.3834    16.5376 </r>
       <r>    -4.3741     3.6290    16.8322 </r>
       <r>    -4.2899     3.9958    17.1533 </r>
       <r>    -4.2057     2.0968    17.4324 </r>
       <r>    -4.1214     1.7897    17.5961 </r>
       <r>    -4.0372     1.9211    17.7402 </r>
       <r>    -3.9530     1.3229    17.8768 </r>
       <r>    -3.8688     0.7247    17.9630 </r>
       <r>    -3.7845     0.1265    17.9989 </r>
       <r>    -3.7003     0.0000    18.0000 </r>
       <r>    -3.6161     0.0000    18.0000 </r>
       <r>    -3.5319     0.0000    18.0000 </r>
       <r>    -3.4476     0.0000    18.0000 </r>
       <r>    -3.3634     0.0000    18.0000 </r>
       <r>    -3.2792     0.0000    18.0000 </r>
       <r>    -3.1949     0.0000    18.0000 </r>
       <r>    -3.1107     0.0000    18.0000 </r>
       <r>    -3.0265     0.0000    18.0000 </r>
       <r>    -2.9423     0.0000    18.0000 </r>
       <r>    -2.8580     0.0000    18.0000 </r>
       <r>    -2.7738     0.0000    18.0000 </r>
       <r>    -2.6896     0.0000    18.0000 </r>
       <r>    -2.6054     0.0000    18.0000 </r>
       <r>    -2.5211     0.0000    18.0000 </r>
       <r>    -2.4369     0.0000    18.0000 </r>
       <r>    -2.3527     0.0000    18.0000 </r>
       <r>    -2.2685     0.0000    18.0000 </r>
       <r>    -2.1842     0.0000    18.0000 </r>
       <r>    -2.1000     0.0219    18.0001 </r>
       <r>    -2.0158     0.2242    18.0105 </r>
       <r>    -1.9315     0.4265    18.0379 </r>
       <r>    -1.8473     0.6288    18.0823 </r>
       <r>    -1.7631     2.5682    18.2019 </r>
       <r>    -1.6789     4.9570    18.5188 </r>
       <r>    -1.5946     7.3459    19.0369 </r>
       <r>    -1.5104     1.5233    19.7807 </r>
       <r>    -1.4262     1.4050    19.8689 </r>
       <r>    -1.3420     4.3799    20.1126 </r>
       <r>    -1.2577     5.4396    20.5510 </r>
       <r>    -1.1735     4.2181    20.9854 </r>
       <r>    -1.0893     5.2685    21.5662 </r>
       <r>    -1.0050     3.6627    22.0971 </r>
       <r>    -0.9208     2.8229    22.3663 </r>
       <r>    -0.8366     2.0880    22.5732 </r>
       <r>    -0.7524     1.4424    22.7188 </r>
       <r>    -0.6681     1.5806    22.8407 </r>
       <r>    -0.5839     1.9029    22.9874 </r>
       <r>    -0.4997     2.2251    23.1612 </r>
       <r>    -0.4155     5.2255    23.4699 </r>
       <r>    -0.3312     3.2193    23.8293 </r>
       <r>    -0.2470     1.7631    24.0203 </r>
       <r>    -0.1628     1.5521    24.1599 </r>
       <r>    -0.0786     1.3412    24.2817 </r>
       <r>     0.0057     1.1302    24.3858 </r>
       <r>     0.0899     0.9193    24.4721 </r>
       <r>     0.1741     0.8250    24.5428 </r>
       <r>     0.2584     0.8812    24.6147 </r>
       <r>     0.3426     2.2324    24.7356 </r>
       <r>     0.4268     2.9888    24.9630 </r>
       <r>     0.5110     3.3695    25.2353 </r>
       <r>     0.5953     3.3781    25.5195 </r>
       <r>     0.6795     1.4579    25.7292 </r>
       <r>     0.7637     1.1273    25.8381 </r>
       <r>     0.8479     0.7967    25.9191 </r>
       <r>     0.9322     0.4661    25.9723 </r>
       <r>     1.0164     0.1355    25.9977 </r>
       <r>     1.1006     0.0000    26.0000 </r>
       <r>     1.1848     0.0000    26.0000 </r>
       <r>     1.2691     0.0000    26.0000 </r>
       <r>     1.3533     0.0000    26.0000 </r>
       <r>     1.4375     0.0000    26.0000 </r>
       <r>     1.5218     0.0000    26.0000 </r>
       <r>     1.6060     0.0000    26.0000 </r>
       <r>     1.6902     0.0237    26.0003 </r>
       <r>     1.7744     0.1013    26.0056 </r>
       <r>     1.8587     0.1788    26.0174 </r>
       <r>     1.9429     0.2564    26.0357 </r>
       <r>     2.0271     0.3340    26.0606 </r>
       <r>     2.1113     0.4116    26.0920 </r>
       <r>     2.1956     0.4892    26.1299 </r>
       <r>     2.2798     0.3422    26.1713 </r>
       <r>     2.3640     0.3604    26.2009 </r>
       <r>     2.4483     0.4159    26.2326 </r>
       <r>     2.5325     0.5341    26.2726 </r>
       <r>     2.6167     0.6523    26.3226 </r>
       <r>     2.7009     0.7705    26.3825 </r>
       <r>     2.7852     0.8887    26.4524 </r>
       <r>     2.8694     1.0069    26.5322 </r>
       <r>     2.9536     1.1252    26.6220 </r>
       <r>     3.0378     1.2434    26.7218 </r>
       <r>     3.1221     1.3616    26.8315 </r>
       <r>     3.2063     1.4798    26.9511 </r>
       <r>     3.2905     6.7675    27.3693 </r>
       <r>     3.3747     3.7087    27.8105 </r>
       <r>     3.4590     0.6499    27.9940 </r>
       <r>     3.5432     0.0000    28.0000 </r>
       <r>     3.6274     0.0000    28.0000 </r>
       <r>     3.7117     0.0000    28.0000 </r>
       <r>     3.7959     0.0000    28.0000 </r>
       <r>     3.8801     0.0000    28.0000 </r>
       <r>     3.9643     0.0000    28.0000 </r>
       <r>     4.0486     0.0000    28.0000 </r>
       <r>     4.1328     0.0000    28.0000 </r>
       <r>     4.2170     0.0000    28.0000 </r>
       <r>     4.3012     0.0000    28.0000 </r>
       <r>     4.3855     0.0000    28.0000 </r>
       <r>     4.4697     0.0000    28.0000 </r>
       <r>     4.5539     0.0000    28.0000 </r>
       <r>     4.6381     0.0000    28.0000 </r>
       <r>     4.7224     0.0000    28.0000 </r>
       <r>     4.8066     0.0000    28.0000 </r>
       <r>     4.8908     0.0000    28.0000 </r>
       <r>     4.9751     0.0000    28.0000 </r>
       <r>     5.0593     0.0000    28.0000 </r>
       <r>     5.1435     0.0000    28.0000 </r>
       <r>     5.2277     0.0000    28.0000 </r>
       <r>     5.3120     0.0000    28.0000 </r>
       <r>     5.3962     0.0000    28.0000 </r>
       <r>     5.4804     0.0000    28.0000 </r>
      </set>
     </set>
    </array>
   </total>
  </dos>
 </calculation>
 <structure name="finalpos" >
  <crystal>
   <varray name="basis" >
    <v>       3.19031573       0.00000000       0.00000000 </v>
    <v>      -1.59515786       2.76289447       0.00000000 </v>
    <v>       0.00000000       0.00000000      30.87900430 </v>
   </varray>
   <i name="volume">    272.18315887 </i>
   <varray name="rec_basis" >
    <v>       0.31344860       0.18096963       0.00000000 </v>
    <v>       0.00000000       0.36193927       0.00000000 </v>
    <v>       0.00000000       0.00000000       0.03238446 </v>
   </varray>
  </crystal>
  <varray name="positions" >
   <v>       0.33333300       0.66666700       0.12046214 </v>
   <v>       0.66666700       0.33333300       0.06978420 </v>
   <v>       0.66666600       0.33333300       0.17114009 </v>
  </varray>
 </structure>
</modeling>
