unknown system                          
   1.00000000000000     
     3.190316    0.000000    0.000000
    -1.595158    2.762894    0.000000
     0.000000    0.000000   14.879004
   Mo   S 
     2     4
Direct
  0.333333  0.666667  0.250000
  0.666667  0.333333  0.750000
  0.333333  0.666667  0.855174
  0.666667  0.333333  0.144826
  0.666666  0.333333  0.355174
  0.333334  0.666667  0.644826
 
   36   36  160
 0.39562572718E+00 0.39869010358E+00 0.40789666886E+00 0.42328042654E+00 0.44483050923E+00
 0.47241164770E+00 0.50568997506E+00 0.54407860160E+00 0.58671030813E+00 0.63243926197E+00
 0.67987157173E+00 0.72742302924E+00 0.77339791523E+00 0.81607610391E+00 0.85379420634E+00
 0.88501603648E+00 0.90840211664E+00 0.92289158901E+00 0.92779461579E+00 0.92287066267E+00
 0.90836006761E+00 0.88495353513E+00 0.85371402748E+00 0.81598347977E+00 0.77329960186E+00
 0.72732560838E+00 0.67977997972E+00 0.63235627051E+00 0.58663698839E+00 0.54401523445E+00
 0.50563675945E+00 0.47236885925E+00 0.44479819815E+00 0.42325804279E+00 0.40788301513E+00
 0.39868375900E+00 0.39868414195E+00 0.39868695328E+00 0.40482303641E+00 0.41712262444E+00
 0.43560251923E+00 0.46019743476E+00 0.49068309058E+00 0.52660913379E+00 0.56725611107E+00
 0.61162187850E+00 0.65843663077E+00 0.70620616015E+00 0.75328128806E+00 0.79794220212E+00
 0.83848092367E+00 0.87327438181E+00 0.90085582733E+00 0.91999643097E+00 0.92979829999E+00
 0.92978388354E+00 0.91995446742E+00 0.90079175093E+00 0.87319809299E+00 0.83840142150E+00
 0.79786192267E+00 0.75319754463E+00 0.70611738558E+00 0.65834578628E+00 0.61153513379E+00
 0.56718004324E+00 0.52654803226E+00 0.49063692897E+00 0.46016281898E+00 0.43557654713E+00
 0.41710489413E+00 0.40481351083E+00 0.40788414297E+00 0.40481690512E+00 0.40789042944E+00
 0.41712019428E+00 0.43252752199E+00 0.45408753599E+00 0.48166123303E+00 0.51492544907E+00
 0.55331667807E+00 0.59599906190E+00 0.64185765104E+00 0.68951876749E+00 0.73740306361E+00
 0.78380611787E+00 0.82698525356E+00 0.86523581954E+00 0.89696267381E+00 0.92076286109E+00
 0.93552312230E+00 0.94051970042E+00 0.93549926698E+00 0.92071474026E+00 0.89689554894E+00
 0.86515980203E+00 0.82690647269E+00 0.78372350955E+00 0.73731507378E+00 0.68942862848E+00
 0.64177100038E+00 0.59592072299E+00 0.55325068367E+00 0.51487391498E+00 0.48162202222E+00
 0.45405652791E+00 0.43250369747E+00 0.41710527698E+00 0.42325933449E+00 0.41710957202E+00
 0.41711215269E+00 0.42327003949E+00 0.43559788198E+00 0.45408689507E+00 0.47865321127E+00
 0.50907625282E+00 0.54493786233E+00 0.58557623712E+00 0.63005894342E+00 0.67717496987E+00
 0.72545698710E+00 0.77324481096E+00 0.81877586766E+00 0.86027296054E+00 0.89602033005E+00
 0.92444545648E+00 0.94421937980E+00 0.95436619586E+00 0.95436210986E+00 0.94420186594E+00
 0.92440639713E+00 0.89595899405E+00 0.86019408167E+00 0.81868393873E+00 0.77314643444E+00
 0.72536316105E+00 0.67709384232E+00 0.62998961337E+00 0.58551453000E+00 0.54488377523E+00
 0.50903118263E+00 0.47861538814E+00 0.45405523611E+00 0.43557563818E+00 0.44479819816E+00
 0.43558236212E+00 0.43251220771E+00 0.43558698997E+00 0.44481442226E+00 0.46018924564E+00
 0.48165852384E+00 0.50907610534E+00 0.54214592148E+00 0.58036817424E+00 0.62299986648E+00
 0.66902568787E+00 0.71714385455E+00 0.76579214426E+00 0.81322465728E+00 0.85761099202E+00
 0.89712646540E+00 0.93003802886E+00 0.95480680495E+00 0.97020610563E+00 0.97543480328E+00
 0.97020691210E+00 0.95479504537E+00 0.93000233630E+00 0.89706487771E+00 0.85752631615E+00
 0.81312467677E+00 0.76569349871E+00 0.71706278340E+00 0.66896285145E+00 0.62294368061E+00
 0.58031262293E+00 0.54209501692E+00 0.50903262683E+00 0.48162089436E+00 0.46015970013E+00
 0.47236605592E+00 0.46016882431E+00 0.45406811655E+00 0.45406884097E+00 0.46017708038E+00
 0.47238874942E+00 0.49066682048E+00 0.51491515507E+00 0.54493554962E+00 0.58037121059E+00
 0.62065760812E+00 0.66498304423E+00 0.71224969892E+00 0.76105566252E+00 0.80973454135E+00
 0.85644851205E+00 0.89929256232E+00 0.93639098627E+00 0.96600523147E+00 0.98666201452E+00
 0.99728105072E+00 0.99728194138E+00 0.98665688452E+00 0.96598240248E+00 0.93634880391E+00
 0.89923354809E+00 0.85637245890E+00 0.80964793489E+00 0.76097535992E+00 0.71218515417E+00
 0.66492543082E+00 0.62059693372E+00 0.58031255551E+00 0.54488787047E+00 0.51487671839E+00
 0.49063374266E+00 0.50563116495E+00 0.49064215403E+00 0.48163744903E+00 0.47863343983E+00
 0.48164005409E+00 0.49065820754E+00 0.50566044019E+00 0.52658026185E+00 0.55329310051E+00
 0.58556727706E+00 0.62300393353E+00 0.66498829115E+00 0.71064068922E+00 0.75876593476E+00
 0.80784457881E+00 0.85609762703E+00 0.90159343557E+00 0.94235417255E+00 0.97646798150E+00
 0.10022270938E+01 0.10182740941E+01 0.10237259110E+01 0.10182680276E+01 0.10022051468E+01
 0.97643104744E+00 0.94231302167E+00 0.90154788230E+00 0.85603822801E+00 0.80777446437E+00
 0.75869899063E+00 0.71057878658E+00 0.66492262736E+00 0.62293808613E+00 0.58551582183E+00
 0.55325740600E+00 0.52654841506E+00 0.54400983791E+00 0.52655250476E+00 0.51489199437E+00
 0.50905491446E+00 0.50905485508E+00 0.51490197252E+00 0.52658141096E+00 0.54404438015E+00
 0.56721394225E+00 0.59596007893E+00 0.63003666627E+00 0.66901885337E+00 0.71224848417E+00
 0.75876598148E+00 0.80725534634E+00 0.85606394808E+00 0.90329853243E+00 0.94693940249E+00
 0.98495214065E+00 0.10154269906E+01 0.10367443638E+01 0.10477215038E+01 0.10477218485E+01
 0.10367351242E+01 0.10153986631E+01 0.98491685286E+00 0.94690842800E+00 0.90326022714E+00
 0.85600604286E+00 0.80718855262E+00 0.75870438702E+00 0.71218774706E+00 0.66895471901E+00
 0.62998292522E+00 0.59592611942E+00 0.56718582243E+00 0.58663698829E+00 0.56718522723E+00
 0.55326807544E+00 0.54491142909E+00 0.54212191020E+00 0.54491390509E+00 0.55329180673E+00
 0.56722744786E+00 0.58667366414E+00 0.61157231136E+00 0.64180779379E+00 0.67713381877E+00
 0.71711108633E+00 0.76103395553E+00 0.80783932101E+00 0.85606812643E+00 0.90393127933E+00
 0.94943056174E+00 0.99047353629E+00 0.10250030178E+01 0.10511712368E+01 0.10675151927E+01
 0.10730833445E+01 0.10675280838E+01 0.10511708912E+01 0.10249822178E+01 0.99044874508E+00
 0.94940237884E+00 0.90388218423E+00 0.85600146804E+00 0.80778005893E+00 0.76098813457E+00
 0.71706278330E+00 0.67708257927E+00 0.64176987260E+00 0.61154472217E+00 0.63236503334E+00
 0.61154296414E+00 0.59593349622E+00 0.58554074890E+00 0.58034429577E+00 0.58034139950E+00
 0.58554994493E+00 0.59597251963E+00 0.61159237672E+00 0.63240210140E+00 0.65838959313E+00
 0.68946690718E+00 0.72539818881E+00 0.76573110261E+00 0.80969186498E+00 0.85608602430E+00
 0.90330426273E+00 0.94943495438E+00 0.99239335085E+00 0.10300422613E+01 0.10603567970E+01
 0.10816245891E+01 0.10926035108E+01 0.10926198568E+01 0.10816497760E+01 0.10603591639E+01
 0.10300273270E+01 0.99237529852E+00 0.94940117034E+00 0.90324606789E+00 0.85602946529E+00
 0.80965950122E+00 0.76570499744E+00 0.72535568994E+00 0.68941986571E+00 0.65835416630E+00
 0.67979457351E+00 0.65835653332E+00 0.64177729461E+00 0.63000816963E+00 0.62297728823E+00
 0.62063170949E+00 0.62297310535E+00 0.63003040166E+00 0.64182723376E+00 0.65840361431E+00
 0.67983303028E+00 0.70616808291E+00 0.73735675611E+00 0.77317753602E+00 0.81314893133E+00
 0.85639520632E+00 0.90157209021E+00 0.94693373921E+00 0.99047289354E+00 0.10300471468E+01
 0.10635230311E+01 0.10889813039E+01 0.11049160552E+01 0.11103554141E+01 0.11049397581E+01
 0.10889922068E+01 0.10635113835E+01 0.10300360898E+01 0.99046333881E+00 0.94690303144E+00
 0.90152769399E+00 0.85636965558E+00 0.81313927058E+00 0.77314772610E+00 0.73730160779E+00
 0.70611776852E+00 0.72733710785E+00 0.70612828391E+00 0.68943045779E+00 0.67710270607E+00
 0.66899386726E+00 0.66496744127E+00 0.66496224367E+00 0.66900079089E+00 0.67714389990E+00
 0.68948232848E+00 0.70616641643E+00 0.72738011721E+00 0.75324962653E+00 0.78376452875E+00
 0.81870932728E+00 0.85753807464E+00 0.89923840670E+00 0.94231844024E+00 0.98492765969E+00
 0.10249986002E+01 0.10603761305E+01 0.10890018565E+01 0.11091411901E+01 0.11195495063E+01
 0.11195575850E+01 0.11091442562E+01 0.10889807073E+01 0.10603564274E+01 0.10250036887E+01
 0.98493374861E+00 0.94230152202E+00 0.89921924522E+00 0.85753507972E+00 0.81869414631E+00
 0.78371200993E+00 0.75318642806E+00 0.77329960198E+00 0.75320421645E+00 0.73731744469E+00
 0.72536731545E+00 0.71708844595E+00 0.71223137843E+00 0.71062547967E+00 0.71223266585E+00
 0.71712132144E+00 0.72542622507E+00 0.73736385724E+00 0.75323594851E+00 0.77334874998E+00
 0.79790634098E+00 0.82693930624E+00 0.86021085999E+00 0.89706652630E+00 0.93634119896E+00
 0.97642180737E+00 0.10153937247E+01 0.10511725980E+01 0.10816567051E+01 0.11049479681E+01
 0.11195628369E+01 0.11245504848E+01 0.11195632476E+01 0.11049251641E+01 0.10816238510E+01
 0.10511708914E+01 0.10154212217E+01 0.97643664177E+00 0.93633444512E+00 0.89706487782E+00
 0.86020995203E+00 0.82690534467E+00 0.79784437760E+00 0.81597131345E+00 0.79786193423E+00
 0.78373096621E+00 0.77315456359E+00 0.76571464646E+00 0.76101896010E+00 0.75875001582E+00
 0.75874981815E+00 0.76104043321E+00 0.76577570156E+00 0.77322205684E+00 0.78377264642E+00
 0.79789764060E+00 0.81602363504E+00 0.83843160556E+00 0.86517744202E+00 0.89596220454E+00
 0.92999218712E+00 0.96596330354E+00 0.10021832760E+01 0.10367169206E+01 0.10675194061E+01
 0.10926242149E+01 0.11103709405E+01 0.11195678327E+01 0.11195731723E+01 0.11103675804E+01
 0.10925989273E+01 0.10675059462E+01 0.10367418944E+01 0.10022173132E+01 0.96597303932E+00
 0.92999290590E+00 0.89597245240E+00 0.86517196838E+00 0.83838887202E+00 0.85369752960E+00
 0.83839654164E+00 0.82691955607E+00 0.81870107370E+00 0.81314376433E+00 0.80968194592E+00
 0.80782228500E+00 0.80723507256E+00 0.80782752690E+00 0.80972445177E+00 0.81321918063E+00
 0.81876740781E+00 0.82696555966E+00 0.83844603689E+00 0.85374590571E+00 0.87321200020E+00
 0.89689326380E+00 0.92439052135E+00 0.95476964706E+00 0.98662771829E+00 0.10182416030E+01
 0.10477042265E+01 0.10730787673E+01 0.10926120483E+01 0.11049314704E+01 0.11091526898E+01
 0.11049471468E+01 0.10926122734E+01 0.10730668465E+01 0.10477164522E+01 0.10182789310E+01
 0.98665408094E+00 0.95477854750E+00 0.92440768904E+00 0.89691317460E+00 0.87319847567E+00
 0.88494270414E+00 0.87319279644E+00 0.86517436149E+00 0.86021715113E+00 0.85754428401E+00
 0.85639419380E+00 0.85607617934E+00 0.85605277965E+00 0.85604869667E+00 0.85608785843E+00
 0.85644726998E+00 0.85761679142E+00 0.86027906555E+00 0.86523289879E+00 0.87325538041E+00
 0.88497935964E+00 0.90079129722E+00 0.92069242281E+00 0.94416556577E+00 0.97016675582E+00
 0.99724810754E+00 0.10237052743E+01 0.10477150572E+01 0.10675180702E+01 0.10816287121E+01
 0.10889795264E+01 0.10889921348E+01 0.10816441827E+01 0.10675143331E+01 0.10477160695E+01
 0.10237367418E+01 0.99728996858E+00 0.97019334521E+00 0.94418974344E+00 0.92072557108E+00
 0.90080296443E+00 0.90836006747E+00 0.90078957141E+00 0.89690557027E+00 0.89597961179E+00
 0.89708096840E+00 0.89924675533E+00 0.90157614935E+00 0.90330707014E+00 0.90393403208E+00
 0.90330124044E+00 0.90159750051E+00 0.89930106798E+00 0.89714098879E+00 0.89603758943E+00
 0.89697478287E+00 0.90085411530E+00 0.90838118847E+00 0.91994352454E+00 0.93546160814E+00
 0.95430995641E+00 0.97538384996E+00 0.99724488684E+00 0.10182581010E+01 0.10367431385E+01
 0.10511725977E+01 0.10603505794E+01 0.10635084373E+01 0.10603620858E+01 0.10511712368E+01
 0.10367357087E+01 0.10182796887E+01 0.99729790566E+00 0.97543480313E+00 0.95434676647E+00
 0.93549813920E+00 0.91996813609E+00 0.92287992270E+00 0.91995593771E+00 0.92071641717E+00
 0.92441771494E+00 0.93001663408E+00 0.93636214504E+00 0.94233914444E+00 0.94695741715E+00
 0.94946157648E+00 0.94945715059E+00 0.94696311282E+00 0.94237512919E+00 0.93641226058E+00
 0.93006258810E+00 0.92447251950E+00 0.92078674765E+00 0.92000891480E+00 0.92288580009E+00
 0.92976596539E+00 0.94047381051E+00 0.95430516482E+00 0.97014666503E+00 0.98661845845E+00
 0.10022047027E+01 0.10154201469E+01 0.10250008395E+01 0.10300378867E+01 0.10300427585E+01
 0.10250023065E+01 0.10154123341E+01 0.10022178338E+01 0.98667407804E+00 0.97021810157E+00
 0.95435822752E+00 0.94051044041E+00 0.92979276075E+00 0.92780735697E+00 0.92978738271E+00
 0.93549330956E+00 0.94420286786E+00 0.95480958737E+00 0.96600488854E+00 0.97646450653E+00
 0.98497030806E+00 0.99051451053E+00 0.99243437270E+00 0.99051525621E+00 0.98499493564E+00
 0.97651081630E+00 0.96604693475E+00 0.95484685679E+00 0.94425675743E+00 0.93555479947E+00
 0.92981956878E+00 0.92780088336E+00 0.92977522544E+00 0.93547434925E+00 0.94415473483E+00
 0.95474040799E+00 0.96595113724E+00 0.97643454872E+00 0.98493915919E+00 0.99047474612E+00
 0.99240211367E+00 0.99048627740E+00 0.98494674411E+00 0.97644964577E+00 0.96600242810E+00
 0.95481954614E+00 0.94422067147E+00 0.93551150889E+00 0.92979868288E+00 0.92290084896E+00
 0.92980173150E+00 0.94051073224E+00 0.95435685529E+00 0.97022346812E+00 0.98669260798E+00
 0.10022510688E+01 0.10154563702E+01 0.10250504489E+01 0.10300901666E+01 0.10300853250E+01
 0.10250549128E+01 0.10154895879E+01 0.10022948272E+01 0.98672696374E+00 0.97026292736E+00
 0.95441306727E+00 0.94055646112E+00 0.92981030878E+00 0.92288580023E+00 0.91996683618E+00
 0.92071251345E+00 0.92438126112E+00 0.92997076056E+00 0.93633329685E+00 0.94231620079E+00
 0.94692447923E+00 0.94943445729E+00 0.94944979305E+00 0.94695405878E+00 0.94234491240E+00
 0.93637892282E+00 0.93004455291E+00 0.92445342461E+00 0.92075360097E+00 0.91998755383E+00
 0.90840211671E+00 0.91999784518E+00 0.93551715937E+00 0.95436092256E+00 0.97545254067E+00
 0.99732726816E+00 0.10183247787E+01 0.10367945281E+01 0.10512366556E+01 0.10604259995E+01
 0.10635669126E+01 0.10604067503E+01 0.10512352760E+01 0.10368217969E+01 0.10183571255E+01
 0.99736023512E+00 0.97550357429E+00 0.95441785871E+00 0.93554205815E+00 0.91998560330E+00
 0.90838118868E+00 0.90081617960E+00 0.89690976154E+00 0.89596031939E+00 0.89706652625E+00
 0.89924095863E+00 0.90155749628E+00 0.90328144844E+00 0.90393127949E+00 0.90331798036E+00
 0.90159902993E+00 0.89928131418E+00 0.89712646546E+00 0.89603308974E+00 0.89696154582E+00
 0.90084139292E+00 0.88500520586E+00 0.90085378676E+00 0.92076440254E+00 0.94422028934E+00
 0.97022268809E+00 0.99732648161E+00 0.10237868216E+01 0.10477810067E+01 0.10675892916E+01
 0.10817205269E+01 0.10890623060E+01 0.10890417183E+01 0.10816883672E+01 0.10675850871E+01
 0.10477982746E+01 0.10238073607E+01 0.99736345597E+00 0.97028301817E+00 0.94426758802E+00
 0.92076665670E+00 0.90082923307E+00 0.88497935980E+00 0.87322283100E+00 0.86517877776E+00
 0.86021719150E+00 0.85756040487E+00 0.85640603686E+00 0.85606643055E+00 0.85604732449E+00
 0.85606938255E+00 0.85610845771E+00 0.85644048463E+00 0.85760289732E+00 0.86028508314E+00
 0.86524665017E+00 0.87326316808E+00 0.85377770844E+00 0.87326931172E+00 0.89697247347E+00
 0.92445657379E+00 0.95482149568E+00 0.98669795575E+00 0.10183307882E+01 0.10477805687E+01
 0.10731423793E+01 0.10926932517E+01 0.11050254369E+01 0.11092226124E+01 0.11049933614E+01
 0.10926724578E+01 0.10731470430E+01 0.10477874438E+01 0.10183406278E+01 0.98673622397E+00
 0.95487609588E+00 0.92448177933E+00 0.89695828491E+00 0.87324454970E+00 0.85374590573E+00
 0.83841943904E+00 0.82692280851E+00 0.81872082700E+00 0.81318002299E+00 0.80970062757E+00
 0.80782282305E+00 0.80724995002E+00 0.80785548216E+00 0.80973173777E+00 0.81320815940E+00
 0.81877715957E+00 0.82700287924E+00 0.83848130635E+00 0.81606393715E+00 0.83847612740E+00
 0.86525031568E+00 0.89604070278E+00 0.93005250553E+00 0.96602790213E+00 0.10022729497E+01
 0.10368036119E+01 0.10675765155E+01 0.10926769270E+01 0.11104477652E+01 0.11196491682E+01
 0.11196358410E+01 0.11104322032E+01 0.10926846243E+01 0.10675864226E+01 0.10367955788E+01
 0.10022734008E+01 0.96605910147E+00 0.93008401464E+00 0.89603947435E+00 0.86523156305E+00
 0.83845820339E+00 0.81602363488E+00 0.79787701215E+00 0.78374086292E+00 0.77318970277E+00
 0.76575203191E+00 0.76103176012E+00 0.75875921138E+00 0.75877810133E+00 0.76106502546E+00
 0.76577724159E+00 0.77323135271E+00 0.78381828447E+00 0.79795475137E+00 0.77339791505E+00
 0.79794217402E+00 0.82699851950E+00 0.86029585558E+00 0.89714249773E+00 0.93640446020E+00
 0.97650145673E+00 0.10154846529E+01 0.10512370541E+01 0.10816953583E+01 0.11050015930E+01
 0.11196410914E+01 0.11246250007E+01 0.11196308453E+01 0.11050098594E+01 0.10817163602E+01
 0.10512352757E+01 0.10154631656E+01 0.97649807524E+00 0.93642016293E+00 0.89714098875E+00
 0.86027273410E+00 0.82698205766E+00 0.79792696929E+00 0.77334874969E+00 0.75322096462E+00
 0.73734216244E+00 0.72540658836E+00 0.71711108625E+00 0.71223671828E+00 0.71064628384E+00
 0.71226966462E+00 0.71714385436E+00 0.72543853297E+00 0.73740193589E+00 0.75329806749E+00
 0.72743452883E+00 0.75328799546E+00 0.78381375886E+00 0.81879294606E+00 0.85762862985E+00
 0.89930589344E+00 0.94238044989E+00 0.98500562754E+00 0.10250711722E+01 0.10604236003E+01
 0.10890512946E+01 0.11092195272E+01 0.11196354286E+01 0.11196255020E+01 0.11092111130E+01
 0.10890640489E+01 0.10604323013E+01 0.10250526731E+01 0.98498343605E+00 0.94237736881E+00
 0.89929851596E+00 0.85759446103E+00 0.81875590844E+00 0.78379631273E+00 0.75326461022E+00
 0.72738011690E+00 0.70615658327E+00 0.68946964400E+00 0.67713534704E+00 0.66900195729E+00
 0.66497679165E+00 0.66499734737E+00 0.66903992337E+00 0.67716476192E+00 0.68950726795E+00
 0.70621727699E+00 0.67988616573E+00 0.70621715877E+00 0.73740539092E+00 0.77325297301E+00
 0.81324349270E+00 0.85647030422E+00 0.90162191575E+00 0.94698837015E+00 0.99053924209E+00
 0.10301050737E+01 0.10635785387E+01 0.10890627943E+01 0.11050161869E+01 0.11104355984E+01
 0.11049943450E+01 0.10890514755E+01 0.10635815068E+01 0.10300945850E+01 0.99051340341E+00
 0.94697237292E+00 0.90161209445E+00 0.85643643902E+00 0.81318808876E+00 0.77320989059E+00
 0.73737845142E+00 0.70617791590E+00 0.67983303007E+00 0.65839835599E+00 0.64182238774E+00
 0.63003126971E+00 0.62298374500E+00 0.62065480480E+00 0.62301446050E+00 0.63006023508E+00
 0.64184418483E+00 0.65843701372E+00 0.63244802492E+00 0.65844732100E+00 0.68952046639E+00
 0.72546125079E+00 0.76581340712E+00 0.80976844828E+00 0.85613567140E+00 0.90334533261E+00
 0.94948982984E+00 0.99245248086E+00 0.10300963108E+01 0.10604263371E+01 0.10817212836E+01
 0.10926978564E+01 0.10926844885E+01 0.10817009332E+01 0.10604207111E+01 0.10300896696E+01
 0.99242560974E+00 0.94945764779E+00 0.90332405507E+00 0.85610745205E+00 0.80971568859E+00
 0.76575477207E+00 0.72541782595E+00 0.68947959201E+00 0.65839485138E+00 0.63240210137E+00
 0.61159104566E+00 0.59597423820E+00 0.58555851395E+00 0.58035964420E+00 0.58037420129E+00
 0.58558370823E+00 0.59599029882E+00 0.61161349841E+00 0.58671030819E+00 0.61162948761E+00
 0.64186402962E+00 0.67718403333E+00 0.71716981222E+00 0.76109905912E+00 0.80789227919E+00
 0.85611073874E+00 0.90398321726E+00 0.94949103829E+00 0.99052464799E+00 0.10250497012E+01
 0.10512370544E+01 0.10675986536E+01 0.10731588771E+01 0.10675901508E+01 0.10512366556E+01
 0.10250511603E+01 0.99050176926E+00 0.94944234502E+00 0.90393403228E+00 0.85606949905E+00
 0.80784402469E+00 0.76104262810E+00 0.71712132139E+00 0.67714237181E+00 0.64181263988E+00
 0.61157364247E+00 0.58667366429E+00 0.56722931018E+00 0.55329869492E+00 0.54492838153E+00
 0.54214592153E+00 0.54494654201E+00 0.55331555014E+00 0.56724575670E+00 0.54407320514E+00
 0.56726121621E+00 0.59601212217E+00 0.63007774063E+00 0.66905677975E+00 0.71229579268E+00
 0.75881672541E+00 0.80730194779E+00 0.85611531370E+00 0.90335949215E+00 0.94699376658E+00
 0.98498873122E+00 0.10154620940E+01 0.10367968421E+01 0.10477859654E+01 0.10477864410E+01
 0.10368031831E+01 0.10154710268E+01 0.98497570454E+00 0.94694276046E+00 0.90328762207E+00
 0.85604734561E+00 0.80724046926E+00 0.75875658814E+00 0.71224443151E+00 0.66901768692E+00
 0.63003579809E+00 0.59595836013E+00 0.56721208009E+00 0.54404438042E+00 0.52658565843E+00
 0.51491256190E+00 0.50907344479E+00 0.50908294122E+00 0.51493084560E+00 0.52660335431E+00
 0.50568438030E+00 0.52661380622E+00 0.55333423073E+00 0.58560261542E+00 0.62303328937E+00
 0.66502501681E+00 0.71068720000E+00 0.75881132884E+00 0.80788668453E+00 0.85614443450E+00
 0.90164210454E+00 0.94239194939E+00 0.97649586185E+00 0.10022607831E+01 0.10183198851E+01
 0.10237759909E+01 0.10183191841E+01 0.10022603289E+01 0.97648284252E+00 0.94234840440E+00
 0.90157055453E+00 0.85606534855E+00 0.80781138193E+00 0.75873784942E+00 0.71061988509E+00
 0.66497374331E+00 0.62299329392E+00 0.58555870765E+00 0.55328621191E+00 0.52657601457E+00
 0.50566044044E+00 0.49066401702E+00 0.48165292911E+00 0.47865450311E+00 0.48166795561E+00
 0.49068347338E+00 0.47240884397E+00 0.49068847259E+00 0.51494339473E+00 0.54496552996E+00
 0.58039973542E+00 0.62069226668E+00 0.66502782040E+00 0.71229319966E+00 0.76108628401E+00
 0.80975688178E+00 0.85647310798E+00 0.89932019677E+00 0.93641881891E+00 0.96603726499E+00
 0.98670075927E+00 0.99731845438E+00 0.99731041304E+00 0.98668054446E+00 0.96600769229E+00
 0.93637420876E+00 0.89925800329E+00 0.85640222093E+00 0.80968474943E+00 0.76100959713E+00
 0.71221141264E+00 0.66495313829E+00 0.62063451325E+00 0.58035296599E+00 0.54492107271E+00
 0.51490456529E+00 0.49066101113E+00 0.47238874956E+00 0.46018370601E+00 0.45408279969E+00
 0.45409033962E+00 0.46020062119E+00 0.44483050921E+00 0.46020325283E+00 0.48167644992E+00
 0.50909992246E+00 0.54217294997E+00 0.58039980281E+00 0.62303888414E+00 0.66906491253E+00
 0.71716981214E+00 0.76580190784E+00 0.81322889870E+00 0.85761986658E+00 0.89714249789E+00
 0.93006193596E+00 0.95483799359E+00 0.97023625503E+00 0.97545254059E+00 0.97021147183E+00
 0.95479684620E+00 0.93001011038E+00 0.89708096853E+00 0.85755237867E+00 0.81316026223E+00
 0.76572954910E+00 0.71708844582E+00 0.66897963145E+00 0.62296269445E+00 0.58033826927E+00
 0.54212191027E+00 0.50905751529E+00 0.48164564860E+00 0.46018262003E+00 0.44481442223E+00
 0.43559385394E+00 0.43252639415E+00 0.43560487261E+00 0.42328171858E+00 0.43560807452E+00
 0.45409909972E+00 0.47867120363E+00 0.50909847818E+00 0.54496143442E+00 0.58560132353E+00
 0.63008442921E+00 0.67719529679E+00 0.72546872178E+00 0.77325168097E+00 0.81878273832E+00
 0.86027998525E+00 0.89602724443E+00 0.92445528202E+00 0.94423241217E+00 0.95437626607E+00
 0.95436482333E+00 0.94420157586E+00 0.92440974683E+00 0.89596685221E+00 0.86020502853E+00
 0.81869978192E+00 0.77316802216E+00 0.72538576961E+00 0.67711291354E+00 0.63000687758E+00
 0.58553327798E+00 0.54490274981E+00 0.50904822616E+00 0.47863214793E+00 0.45407293639E+00
 0.43559101792E+00 0.42327003933E+00 0.41711890233E+00 0.41712353354E+00 0.40789779691E+00
 0.41712749389E+00 0.43253614291E+00 0.45410039167E+00 0.48167757796E+00 0.51494059111E+00
 0.55332750794E+00 0.59600672565E+00 0.64186515776E+00 0.68952922946E+00 0.73741885692E+00
 0.78382525841E+00 0.82699964743E+00 0.86523814907E+00 0.89695484759E+00 0.92075357191E+00
 0.93551828757E+00 0.94051999236E+00 0.93550492276E+00 0.92072567718E+00 0.89690669825E+00
 0.86516353067E+00 0.82690193020E+00 0.78371879986E+00 0.73731857291E+00 0.68944195740E+00
 0.64179076039E+00 0.59594225899E+00 0.55326920343E+00 0.51488659795E+00 0.48163072650E+00
 0.45406531313E+00 0.43251333578E+00 0.41711344449E+00 0.40789042923E+00 0.40482341926E+00
 0.39869048647E+00 0.40482703159E+00 0.41712711090E+00 0.43560898348E+00 0.46020637205E+00
 0.49069165918E+00 0.52661342320E+00 0.56725543661E+00 0.61161989911E+00 0.65843894109E+00
 0.70621677592E+00 0.75329911222E+00 0.79795971935E+00 0.83848867685E+00 0.87326892863E+00
 0.90084257297E+00 0.91998417668E+00 0.92979285457E+00 0.92978699984E+00 0.91996481486E+00
 0.90080400600E+00 0.87320401015E+00 0.83839615855E+00 0.79784938468E+00 0.75318743728E+00
 0.70611716753E+00 0.65835615047E+00 0.61155134406E+00 0.56719558148E+00 0.52655828411E+00
 0.49064177101E+00 0.46016563788E+00 0.43558000911E+00 0.41710866322E+00 0.40481652213E+00
 0.39868695314E+00 0.40564526453E+00 0.40890997303E+00 0.41870286424E+00 0.43501963176E+00
 0.45779856962E+00 0.48685876475E+00 0.52183916335E+00 0.56214749642E+00 0.60692427638E+00
 0.65502746220E+00 0.70504491098E+00 0.75533957177E+00 0.80412437648E+00 0.84955391665E+00
 0.88981697248E+00 0.92322283333E+00 0.94828829595E+00 0.96383602150E+00 0.96910039379E+00
 0.96381475856E+00 0.94824601573E+00 0.92316062333E+00 0.88973746122E+00 0.84946162304E+00
 0.80402545697E+00 0.75524076792E+00 0.70495189819E+00 0.65494356275E+00 0.60685052015E+00
 0.56208383368E+00 0.52178560373E+00 0.48681559922E+00 0.45776592507E+00 0.43499702608E+00
 0.41868912858E+00 0.40890363146E+00 0.40890397965E+00 0.40890680917E+00 0.41592597082E+00
 0.42993738070E+00 0.45086584327E+00 0.47854339842E+00 0.51265932305E+00 0.55270833677E+00
 0.59794370394E+00 0.64734167710E+00 0.69958616283E+00 0.75308588983E+00 0.80603084695E+00
 0.85647921740E+00 0.90245601705E+00 0.94205166704E+00 0.97352297919E+00 0.99540351437E+00
 0.10066212915E+01 0.10066067160E+01 0.99536120813E+00 0.97345864494E+00 0.94197532555E+00
 0.90237648589E+00 0.85639861436E+00 0.80594637943E+00 0.75299625283E+00 0.69949471217E+00
 0.64725473679E+00 0.59786767468E+00 0.55264725782E+00 0.51261310071E+00 0.47850872584E+00
 0.45083986953E+00 0.42991965760E+00 0.41591642296E+00 0.41869021106E+00 0.41494025285E+00
 0.41869641198E+00 0.42993474875E+00 0.44857033727E+00 0.47443615560E+00 0.50725273128E+00
 0.54658688600E+00 0.59180270924E+00 0.64201103106E+00 0.69602622567E+00 0.75234776360E+00
 0.80918696677E+00 0.86454172802E+00 0.91629837094E+00 0.96233927643E+00 0.10006545613E+01
 0.10294660731E+01 0.10473618941E+01 0.10534258081E+01 0.10473379537E+01 0.10294176442E+01
 0.10005867124E+01 0.96226215019E+00 0.91621853629E+00 0.86445864396E+00 0.80909914984E+00
 0.75225804571E+00 0.69593988732E+00 0.64193289472E+00 0.59173695391E+00 0.54653565962E+00
 0.50721385325E+00 0.47440548784E+00 0.44854682482E+00 0.42992004136E+00 0.43499829545E+00
 0.42704073342E+00 0.42704325194E+00 0.43500872102E+00 0.45086067799E+00 0.47443514779E+00
 0.50547107672E+00 0.54358834229E+00 0.58824708423E+00 0.63869273737E+00 0.69389393118E+00
 0.75248799787E+00 0.81276408936E+00 0.87270866158E+00 0.93010399300E+00 0.98264730738E+00
 0.10280737622E+01 0.10642909090E+01 0.10895289179E+01 0.11024919856E+01 0.11024880513E+01
 0.10895116534E+01 0.10642516979E+01 0.10280115412E+01 0.98256718690E+00 0.93001136907E+00
 0.87261060844E+00 0.81267112414E+00 0.75240749454E+00 0.69382480509E+00 0.63863117473E+00
 0.58819336701E+00 0.54354386743E+00 0.50543399249E+00 0.47440425404E+00 0.45083901949E+00
 0.45776592508E+00 0.44522867286E+00 0.44103409378E+00 0.44523314507E+00 0.45778160812E+00
 0.47853428696E+00 0.50724931798E+00 0.54358775782E+00 0.58708835260E+00 0.63711688583E+00
 0.69279867903E+00 0.75294146369E+00 0.81597303795E+00 0.87993722357E+00 0.94256835431E+00
 0.10014164991E+01 0.10539859022E+01 0.10978812015E+01 0.11309716048E+01 0.11515636976E+01
 0.11585577629E+01 0.11515649921E+01 0.11309605325E+01 0.10978459727E+01 0.10539243809E+01
 0.10013317669E+01 0.94246852255E+00 0.87983883709E+00 0.81589203403E+00 0.75287855671E+00
 0.69274266697E+00 0.63706193421E+00 0.58703832302E+00 0.54354528678E+00 0.50721277075E+00
 0.47850568893E+00 0.48681277864E+00 0.46944549483E+00 0.46070879122E+00 0.46070936740E+00
 0.46945327423E+00 0.48683464754E+00 0.51264189817E+00 0.54657554443E+00 0.58824353934E+00
 0.63711892575E+00 0.69247276931E+00 0.75329085813E+00 0.81818246728E+00 0.88532217608E+00
 0.95247590671E+00 0.10171117364E+01 0.10765491940E+01 0.11281187381E+01 0.11693393070E+01
 0.11981129133E+01 0.12129084875E+01 0.12129095298E+01 0.11981083157E+01 0.11693174643E+01
 0.11280778172E+01 0.10764912940E+01 0.10170362432E+01 0.95238918488E+00 0.88524136679E+00
 0.81811759956E+00 0.75323361140E+00 0.69241322246E+00 0.63706180236E+00 0.58819738583E+00
 0.54653844461E+00 0.51260993192E+00 0.52177990976E+00 0.49948014778E+00 0.48599508085E+00
 0.48148025531E+00 0.48599707227E+00 0.49949529769E+00 0.52180811223E+00 0.55267806278E+00
 0.59177759882E+00 0.63868186957E+00 0.69280088783E+00 0.75329482327E+00 0.81897376040E+00
 0.88819978060E+00 0.95885343550E+00 0.10284062304E+01 0.10940666992E+01 0.11529485016E+01
 0.12022557497E+01 0.12394960543E+01 0.12626952239E+01 0.12705762097E+01 0.12626891223E+01
 0.12394743407E+01 0.12022196587E+01 0.11529086806E+01 0.10940222502E+01 0.10283471284E+01
 0.95878312006E+00 0.88813301742E+00 0.81891289158E+00 0.75323082636E+00 0.69273697301E+00
 0.63863240856E+00 0.59174373034E+00 0.55264764153E+00 0.56207826761E+00 0.53490777950E+00
 0.51663388053E+00 0.50744346932E+00 0.50744286157E+00 0.51664268672E+00 0.53493546308E+00
 0.56211132182E+00 0.59789976062E+00 0.64197034908E+00 0.69386987606E+00 0.75293246846E+00
 0.81817883755E+00 0.88819828109E+00 0.96105905166E+00 0.10343243630E+01 0.11051792339E+01
 0.11706021177E+01 0.12275493977E+01 0.12731741099E+01 0.13050696672E+01 0.13214850908E+01
 0.13214855695E+01 0.13050606168E+01 0.12731459491E+01 0.12275146978E+01 0.11705722601E+01
 0.11051419238E+01 0.10342670561E+01 0.96099322802E+00 0.88813861902E+00 0.81812041608E+00
 0.75287030191E+00 0.69381796973E+00 0.64193849635E+00 0.59787365998E+00 0.60685052005E+00
 0.57504621578E+00 0.55212571196E+00 0.53828529826E+00 0.53365249370E+00 0.53828655355E+00
 0.55214803632E+00 0.57508696072E+00 0.60688491016E+00 0.64728967586E+00 0.69597465324E+00
 0.75244550592E+00 0.81593821227E+00 0.88529771852E+00 0.95884592798E+00 0.10343275090E+01
 0.11089954979E+01 0.11797826511E+01 0.12434856066E+01 0.12969739587E+01 0.13374487373E+01
 0.13626981813E+01 0.13712907605E+01 0.13627125039E+01 0.13374497375E+01 0.12969539150E+01
 0.12434618893E+01 0.11797560830E+01 0.11089478061E+01 0.10342621587E+01 0.95878881409E+00
 0.88525465084E+00 0.81589203393E+00 0.75239576166E+00 0.69593880491E+00 0.64726485208E+00
 0.65495284319E+00 0.61893345359E+00 0.59169987241E+00 0.57343679673E+00 0.56426473328E+00