 vasp.5.4.4.18Apr17-6-g9f103f2a35 (build Jun 30 2017 11:15:00) complex          
  
 executed on    STALLO_VASP_5.4.4 date 2019.11.08  11:36:34
 running on    4 total cores
 distrk:  each k-point on    4 cores,    1 groups
 distr:  one band on NCORES_PER_BAND=   2 cores,    2 groups


--------------------------------------------------------------------------------------------------------


 INCAR:
 POTCAR:   PAW_PBE Mo 08Apr2002                   
 POTCAR:    PAW_PBE S 17Jan2003                   
 POTCAR:   PAW_PBE Mo 08Apr2002                   
   VRHFIN =Mo: 4p5s4d                                                           
   LEXCH  = PE                                                                  
   EATOM  =   217.5180 eV,   15.9871 Ry                                         
                                                                                
   TITEL  = PAW_PBE Mo 08Apr2002                                                
   LULTRA =        F    use ultrasoft PP ?                                      
   IUNSCR =        1    unscreen: 0-lin 1-nonlin 2-no                           
   RPACOR =    2.200    partial core radius                                     
   POMASS =   95.940; ZVAL   =    6.000    mass and valenz                      
   RCORE  =    2.750    outmost cutoff radius                                   
   RWIGS  =    2.750; RWIGS  =    1.455    wigner-seitz radius (au A)           
   ENMAX  =  224.584; ENMIN  =  168.438 eV                                      
   RCLOC  =    2.111    cutoff for local pot                                    
   LCOR   =        T    correct aug charges                                     
   LPAW   =        T    paw PP                                                  
   EAUG   =  345.278                                                            
   DEXC   =    -.088                                                            
   RMAX   =    3.077    core radius for proj-oper                               
   RAUG   =    1.300    factor for augmentation sphere                          
   RDEP   =    2.815    radius for radial grids                                 
   QCUT   =   -4.063; QGAM   =    8.126    optimization parameters              
                                                                                
   Description                                                                  
     l     E      TYP  RCUT    TYP  RCUT                                        
     2   .000     23  2.500                                                     
     2   .000     23  2.500                                                     
     0   .000     23  2.600                                                     
     0  1.000     23  2.600                                                     
     1   .400     23  2.750                                                     
     1  2.000     23  2.750                                                     
     3   .000      7   .000                                                     
  local pseudopotential read in
  partial core-charges read in
  atomic valenz-charges read in
  non local Contribution for L=           2  read in
    real space projection operators read in
  non local Contribution for L=           2  read in
    real space projection operators read in
  non local Contribution for L=           0  read in
    real space projection operators read in
  non local Contribution for L=           0  read in
    real space projection operators read in
  non local Contribution for L=           1  read in
    real space projection operators read in
  non local Contribution for L=           1  read in
    real space projection operators read in
    PAW grid and wavefunctions read in
 
   number of l-projection  operators is LMAX  =           6
   number of lm-projection operators is LMMAX =          18
 
 POTCAR:    PAW_PBE S 17Jan2003                   
   VRHFIN =S : s2p4                                                             
   LEXCH  = PE                                                                  
   EATOM  =   276.8230 eV,   20.3459 Ry                                         
                                                                                
   TITEL  = PAW_PBE S 17Jan2003                                                 
   LULTRA =        F    use ultrasoft PP ?                                      
   IUNSCR =        1    unscreen: 0-lin 1-nonlin 2-no                           
   RPACOR =    1.500    partial core radius                                     
   POMASS =   32.066; ZVAL   =    6.000    mass and valenz                      
   RCORE  =    1.900    outmost cutoff radius                                   
   RWIGS  =    2.200; RWIGS  =    1.164    wigner-seitz radius (au A)           
   ENMAX  =  280.000; ENMIN  =  194.016 eV                                      
   ICORE  =        2    local potential                                         
   LCOR   =        T    correct aug charges                                     
   LPAW   =        T    paw PP                                                  
   EAUG   =  335.092                                                            
   DEXC   =     .000                                                            
   RMAX   =    2.867    core radius for proj-oper                               
   RAUG   =    1.300    factor for augmentation sphere                          
   RDEP   =    1.954    radius for radial grids                                 
   QCUT   =   -4.360; QGAM   =    8.721    optimization parameters              
                                                                                
   Description                                                                  
     l     E      TYP  RCUT    TYP  RCUT                                        
     0   .000     23  1.900                                                     
     0   .000     23  1.900                                                     
     1   .000     23  1.900                                                     
     1   .000     23  1.900                                                     
     2   .000     23  1.900                                                     
  local pseudopotential read in
  partial core-charges read in
  atomic valenz-charges read in
  non local Contribution for L=           0  read in
    real space projection operators read in
  non local Contribution for L=           0  read in
    real space projection operators read in
  non local Contribution for L=           1  read in
    real space projection operators read in
  non local Contribution for L=           1  read in
    real space projection operators read in
    PAW grid and wavefunctions read in
 
   number of l-projection  operators is LMAX  =           4
   number of lm-projection operators is LMMAX =           8
 
 PAW_PBE Mo 08Apr2002                   :
 energy of atom  1       EATOM= -217.5180
 kinetic energy error for atom=    0.0023 (will be added to EATOM!!)
  PAW_PBE S 17Jan2003                   :
 energy of atom  2       EATOM= -276.8230
 kinetic energy error for atom=    0.0033 (will be added to EATOM!!)
 
 
 POSCAR: MoS2_mp-2815_computed                   
  positions in direct lattice
  No initial velocities read in
 exchange correlation table for  LEXCH =        8
   RHO(1)=    0.500       N(1)  =     2000
   RHO(2)=  100.500       N(2)  =     4000
 


--------------------------------------------------------------------------------------------------------


 ion  position               nearest neighbor table
   1  0.333  0.667  0.250-   5 2.42   4 2.42   4 2.42   5 2.42   5 2.42   4 2.42
   2  0.667  0.333  0.750-   6 2.42   3 2.42   3 2.42   6 2.42   6 2.42   3 2.42
   3  0.333  0.667  0.855-   2 2.42   2 2.42   2 2.42
   4  0.667  0.333  0.145-   1 2.42   1 2.42   1 2.42
   5  0.667  0.333  0.355-   1 2.42   1 2.42   1 2.42
   6  0.333  0.667  0.645-   2 2.42   2 2.42   2 2.42
 
  LATTYP: Found a hexagonal cell.
 ALAT       =     3.1903157300
 C/A-ratio  =     4.6638030713
  
  Lattice vectors:
  
 A1 = (   3.1903157300,   0.0000000000,   0.0000000000)
 A2 = (  -1.5951578650,   2.7628944683,   0.0000000000)
 A3 = (   0.0000000000,   0.0000000000,  14.8790043000)


Analysis of symmetry for initial positions (statically):
=====================================================================
 Subroutine PRICEL returns:
 Original cell was already a primitive cell.
 

 Routine SETGRP: Setting up the symmetry group for a 
 hexagonal supercell.


 Subroutine GETGRP returns: Found 24 space group operations
 (whereof 12 operations were pure point group operations)
 out of a pool of 24 trial point group operations.


The static configuration has the point symmetry D_3d.
 The point group associated with its full space group is D_6h.


Analysis of symmetry for dynamics (positions and initial velocities):
=====================================================================
 Subroutine PRICEL returns:
 Original cell was already a primitive cell.
 

 Routine SETGRP: Setting up the symmetry group for a 
 hexagonal supercell.


 Subroutine GETGRP returns: Found 24 space group operations
 (whereof 12 operations were pure point group operations)
 out of a pool of 24 trial point group operations.


The dynamic configuration has the point symmetry D_3d.
 The point group associated with its full space group is D_6h.


 Subroutine INISYM returns: Found 24 space group operations
 (whereof 12 operations are pure point group operations),
 and found     1 'primitive' translations

 
 
 KPOINTS: k-density: 4.0                          

Automatic generation of k-mesh.
Space group operators:
 irot       det(A)        alpha          n_x          n_y          n_z        tau_x        tau_y        tau_z
    1     1.000000     0.000001     1.000000     0.000000     0.000000     0.000000     0.000000     0.000000
    2    -1.000000     0.000001     1.000000     0.000000     0.000000     0.000000     0.000000     0.000000
    3     1.000000   120.000000     0.000000     0.000000    -1.000000     0.000000     0.000000     0.000000
    4    -1.000000   120.000000     0.000000     0.000000    -1.000000     0.000000     0.000000     0.000000
    5     1.000000   120.000000     0.000000     0.000000     1.000000     0.000000     0.000000     0.000000
    6    -1.000000   120.000000     0.000000     0.000000     1.000000     0.000000     0.000000     0.000000
    7     1.000000   179.999999     1.000000    -0.000000     0.000000     0.000000     0.000000     0.000000
    8    -1.000000   179.999999     1.000000    -0.000000     0.000000     0.000000     0.000000     0.000000
    9     1.000000   180.000000     0.500000    -0.866025     0.000000     0.000000     0.000000     0.000000
   10    -1.000000   180.000000     0.500000    -0.866025     0.000000     0.000000     0.000000     0.000000
   11     1.000000   180.000000    -0.500000    -0.866025     0.000000     0.000000     0.000000     0.000000
   12    -1.000000   180.000000    -0.500000    -0.866025     0.000000     0.000000     0.000000     0.000000
   13     1.000000    60.000000     0.000000     0.000000    -1.000000     0.000001     0.000000     0.500000
   14    -1.000000    60.000000     0.000000     0.000000    -1.000000     0.000001     0.000000     0.500000
   15     1.000000   180.000000     0.000000     0.000000     1.000000     0.000000     0.000000     0.500000
   16    -1.000000   180.000000     0.000000     0.000000     1.000000     0.000000     0.000000     0.500000
   17     1.000000    60.000000     0.000000     0.000000     1.000000     0.000000     0.000000     0.500000
   18    -1.000000    60.000000     0.000000     0.000000     1.000000     0.000000     0.000000     0.500000
   19     1.000000   179.999999     0.866025    -0.500000     0.000000     0.000000     0.000000     0.500000
   20    -1.000000   179.999999     0.866025    -0.500000     0.000000     0.000000     0.000000     0.500000
   21     1.000000   180.000000     0.000000     1.000000     0.000000     0.000001     0.000000     0.500000
   22    -1.000000   180.000000     0.000000     1.000000     0.000000     0.000001     0.000000     0.500000
   23     1.000000   179.999999     0.866025     0.500000     0.000000     0.000000     0.000000     0.500000
   24    -1.000000   179.999999     0.866025     0.500000     0.000000     0.000000     0.000000     0.500000
 
 Subroutine IBZKPT returns following result:
 ===========================================
 
 Found     20 irreducible k-points:
 
 Following reciprocal coordinates:
            Coordinates               Weight
  0.000000  0.000000  0.000000      1.000000
  0.125000 -0.000000  0.000000      6.000000
  0.250000 -0.000000  0.000000      6.000000
  0.375000 -0.000000  0.000000      6.000000
  0.500000 -0.000000  0.000000      3.000000
  0.125000  0.125000  0.000000      6.000000
  0.250000  0.125000  0.000000     12.000000
  0.375000  0.125000  0.000000     12.000000
  0.250000  0.250000  0.000000      6.000000
  0.375000  0.250000  0.000000      6.000000
  0.000000  0.000000  0.500000      1.000000
  0.125000 -0.000000  0.500000      6.000000
  0.250000 -0.000000  0.500000      6.000000
  0.375000 -0.000000  0.500000      6.000000
  0.500000 -0.000000  0.500000      3.000000
  0.125000  0.125000  0.500000      6.000000
  0.250000  0.125000  0.500000     12.000000
  0.375000  0.125000  0.500000     12.000000
  0.250000  0.250000  0.500000      6.000000
  0.375000  0.250000  0.500000      6.000000
 
 Following cartesian coordinates:
            Coordinates               Weight
  0.000000  0.000000  0.000000      1.000000
  0.039181  0.022621  0.000000      6.000000
  0.078362  0.045242  0.000000      6.000000
  0.117543  0.067864  0.000000      6.000000
  0.156724  0.090485  0.000000      3.000000
  0.039181  0.067864  0.000000      6.000000
  0.078362  0.090485  0.000000     12.000000
  0.117543  0.113106  0.000000     12.000000
  0.078362  0.135727  0.000000      6.000000
  0.117543  0.158348  0.000000      6.000000
  0.000000  0.000000  0.033604      1.000000
  0.039181  0.022621  0.033604      6.000000
  0.078362  0.045242  0.033604      6.000000
  0.117543  0.067864  0.033604      6.000000
  0.156724  0.090485  0.033604      3.000000
  0.039181  0.067864  0.033604      6.000000
  0.078362  0.090485  0.033604     12.000000
  0.117543  0.113106  0.033604     12.000000
  0.078362  0.135727  0.033604      6.000000
  0.117543  0.158348  0.033604      6.000000
 
 TETIRR: Found    136 inequivalent tetrahedra from      768


--------------------------------------------------------------------------------------------------------




 Dimension of arrays:
   k-points           NKPTS =     20   k-points in BZ     NKDIM =     20   number of bands    NBANDS=     22
   number of dos      NEDOS =    301   number of ions     NIONS =      6
   non local maximal  LDIM  =      6   non local SUM 2l+1 LMDIM =     18
   total plane-waves  NPLWV =  25920
   max r-space proj   IRMAX =      1   max aug-charges    IRDMAX=  12887
   dimension x,y,z NGX =    18 NGY =   18 NGZ =   80
   dimension x,y,z NGXF=    36 NGYF=   36 NGZF=  160
   support grid    NGXF=    36 NGYF=   36 NGZF=  160
   ions per type =               2   4
   NGX,Y,Z   is equivalent  to a cutoff of   9.38,  9.38,  8.94 a.u.
   NGXF,Y,Z  is equivalent  to a cutoff of  18.76, 18.76, 17.88 a.u.

 SYSTEM =  unknown system                          
 POSCAR =  MoS2_mp-2815_computed                   

 Startparameter for this run:
   NWRITE =      2    write-flag & timer
   PREC   = normal    normal or accurate (medium, high low for compatibility)
   ISTART =      0    job   : 0-new  1-cont  2-samecut
   ICHARG =      2    charge: 1-file 2-atom 10-const
   ISPIN  =      1    spin polarized calculation?
   LNONCOLLINEAR =      F non collinear calculations
   LSORBIT =      F    spin-orbit coupling
   INIWAV =      1    electr: 0-lowe 1-rand  2-diag
   LASPH  =      F    aspherical Exc in radial PAW
   METAGGA=      F    non-selfconsistent MetaGGA calc.

 Electronic Relaxation 1
   ENCUT  =  450.0 eV  33.07 Ry    5.75 a.u.   5.52  5.52 25.74*2*pi/ulx,y,z
   ENINI  =  450.0     initial cutoff
   ENAUG  =  345.3 eV  augmentation charge cutoff
   NELM   =     60;   NELMIN=  4; NELMDL=  0     # of ELM steps 
   EDIFF  = 0.1E-04   stopping-criterion for ELM
   LREAL  =      F    real-space projection
   NLSPLINE    = F    spline interpolate recip. space projectors
   LCOMPAT=      F    compatible to vasp.4.4
   GGA_COMPAT  = T    GGA compatible to vasp.4.4-vasp.4.6
   LMAXPAW     = -100 max onsite density
   LMAXMIX     =    2 max onsite mixed and CHGCAR
   VOSKOWN=      0    Vosko Wilk Nusair interpolation
   ROPT   =    0.00000   0.00000
 Ionic relaxation
   EDIFFG = 0.1E-03   stopping-criterion for IOM
   NSW    =      0    number of steps for IOM
   NBLOCK =      1;   KBLOCK =      1    inner block; outer block 
   IBRION =     -1    ionic relax: 0-MD 1-quasi-New 2-CG
   NFREE  =      0    steps in history (QN), initial steepest desc. (CG)
   ISIF   =      2    stress and relaxation
   IWAVPR =     10    prediction:  0-non 1-charg 2-wave 3-comb
   ISYM   =      2    0-nonsym 1-usesym 2-fastsym
   LCORR  =      T    Harris-Foulkes like correction to forces

   POTIM  = 0.5000    time-step for ionic-motion
   TEIN   =    0.0    initial temperature
   TEBEG  =    0.0;   TEEND  =   0.0 temperature during run
   SMASS  =  -3.00    Nose mass-parameter (am)
   estimated Nose-frequenzy (Omega)   =  0.10E-29 period in steps =****** mass=  -0.233E-27a.u.
   SCALEE = 1.0000    scale energy and forces
   NPACO  =    256;   APACO  = 16.0  distance and # of slots for P.C.
   PSTRESS=    0.0 pullay stress

  Mass of Ions in am
   POMASS =  95.94 32.07
  Ionic Valenz
   ZVAL   =   6.00  6.00
  Atomic Wigner-Seitz radii
   RWIGS  =  -1.00 -1.00
  virtual crystal weights 
   VCA    =   1.00  1.00
   NELECT =      36.0000    total number of electrons
   NUPDOWN=      -1.0000    fix difference up-down

 DOS related values:
   EMIN   =  10.00;   EMAX   =-10.00  energy-range for DOS
   EFERMI =   0.00
   ISMEAR =    -5;   SIGMA  =   0.20  broadening in eV -4-tet -1-fermi 0-gaus

 Electronic relaxation 2 (details)
   IALGO  =     68    algorithm
   LDIAG  =      T    sub-space diagonalisation (order eigenvalues)
   LSUBROT=      F    optimize rotation matrix (better conditioning)
   TURBO    =      0    0=normal 1=particle mesh
   IRESTART =      0    0=no restart 2=restart with 2 vectors
   NREBOOT  =      0    no. of reboots
   NMIN     =      0    reboot dimension
   EREF     =   0.00    reference energy to select bands
   IMIX   =      4    mixing-type and parameters
     AMIX     =   0.40;   BMIX     =  1.00
     AMIX_MAG =   1.60;   BMIX_MAG =  1.00
     AMIN     =   0.10
     WC   =   100.;   INIMIX=   1;  MIXPRE=   1;  MAXMIX= -45

 Intra band minimization:
   WEIMIN = 0.0000     energy-eigenvalue tresh-hold
   EBREAK =  0.11E-06  absolut break condition
   DEPER  =   0.30     relativ break condition  

   TIME   =   0.40     timestep for ELM

  volume/ion in A,a.u.               =      21.86       147.51
  Fermi-wavevector in a.u.,A,eV,Ry     =   1.063943  2.010561 15.401453  1.131975
  Thomas-Fermi vector in A             =   2.199445
 
 Write flags
   LWAVE        =      F    write WAVECAR
   LDOWNSAMPLE  =      F    k-point downsampling of WAVECAR
   LCHARG       =      T    write CHGCAR
   LVTOT        =      F    write LOCPOT, total local potential
   LVHAR        =      F    write LOCPOT, Hartree potential only
   LELF         =      F    write electronic localiz. function (ELF)
   LORBIT       =      0    0 simple, 1 ext, 2 COOP (PROOUT), +10 PAW based schemes


 Dipole corrections
   LMONO  =      F    monopole corrections only (constant potential shift)
   LDIPOL =      F    correct potential (dipole corrections)
   IDIPOL =      0    1-x, 2-y, 3-z, 4-all directions 
   EPSILON=  1.0000000 bulk dielectric constant

 Exchange correlation treatment:
   GGA     =    --    GGA type
   LEXCH   =     8    internal setting for exchange type
   VOSKOWN=      0    Vosko Wilk Nusair interpolation
   LHFCALC =     F    Hartree Fock is set to
   LHFONE  =     F    Hartree Fock one center treatment
   AEXX    =    0.0000 exact exchange contribution

 Linear response parameters
   LEPSILON=     F    determine dielectric tensor
   LRPA    =     F    only Hartree local field effects (RPA)
   LNABLA  =     F    use nabla operator in PAW spheres
   LVEL    =     F    velocity operator in full k-point grid
   LINTERFAST=   F  fast interpolation
   KINTER  =     0    interpolate to denser k-point grid
   CSHIFT  =0.1000    complex shift for real part using Kramers Kronig
   OMEGAMAX=  -1.0    maximum frequency
   DEG_THRESHOLD= 0.2000000E-02 threshold for treating states as degnerate
   RTIME   =   -0.100 relaxation time in fs
  (WPLASMAI=    0.000 imaginary part of plasma frequency in eV, 0.658/RTIME)
   DFIELD  = 0.0000000 0.0000000 0.0000000 field for delta impulse in time
 
 Orbital magnetization related:
   ORBITALMAG=     F  switch on orbital magnetization
   LCHIMAG   =     F  perturbation theory with respect to B field
   DQ        =  0.001000  dq finite difference perturbation B field
   LLRAUG    =     F  two centre corrections for induced B field



--------------------------------------------------------------------------------------------------------


 Static calculation
 charge density and potential will be updated during run
 non-spin polarized calculation
 RMM-DIIS sequential band-by-band and
  variant of blocked Davidson during initial phase
 perform sub-space diagonalisation
    before iterative eigenvector-optimisation
 modified Broyden-mixing scheme, WC =      100.0
 initial mixing is a Kerker type mixing with AMIX =  0.4000 and BMIX =      1.0000
 Hartree-type preconditioning will be used
 using additional bands            4
 reciprocal scheme for non local part
 use partial core corrections
 calculate Harris-corrections to forces 
   (improved forces if not selfconsistent)
 use gradient corrections 
 use of overlap-Matrix (Vanderbilt PP)
 Fermi weights with tetrahedron method with Bloechl corrections


--------------------------------------------------------------------------------------------------------


  energy-cutoff  :      450.00
  volume of cell :      131.15
      direct lattice vectors                 reciprocal lattice vectors
     3.190315730  0.000000000  0.000000000     0.313448600  0.180969634  0.000000000
    -1.595157865  2.762894468  0.000000000     0.000000000  0.361939267  0.000000000
     0.000000000  0.000000000 14.879004300     0.000000000  0.000000000  0.067208798

  length of vectors
     3.190315730  3.190315730 14.879004300     0.361939267  0.361939267  0.067208798


 
 k-points in units of 2pi/SCALE and weight: k-density: 4.0                          
   0.00000000  0.00000000  0.00000000       0.008
   0.03918108  0.02262120  0.00000000       0.047
   0.07836215  0.04524241  0.00000000       0.047
   0.11754323  0.06786361  0.00000000       0.047
   0.15672430  0.09048482  0.00000000       0.023
   0.03918108  0.06786361  0.00000000       0.047
   0.07836215  0.09048482  0.00000000       0.094
   0.11754323  0.11310602  0.00000000       0.094
   0.07836215  0.13572723  0.00000000       0.047
   0.11754323  0.15834843  0.00000000       0.047
   0.00000000  0.00000000  0.03360440       0.008
   0.03918108  0.02262120  0.03360440       0.047
   0.07836215  0.04524241  0.03360440       0.047
   0.11754323  0.06786361  0.03360440       0.047
   0.15672430  0.09048482  0.03360440       0.023
   0.03918108  0.06786361  0.03360440       0.047
   0.07836215  0.09048482  0.03360440       0.094
   0.11754323  0.11310602  0.03360440       0.094
   0.07836215  0.13572723  0.03360440       0.047
   0.11754323  0.15834843  0.03360440       0.047
 
 k-points in reciprocal lattice and weights: k-density: 4.0                          
   0.00000000  0.00000000  0.00000000       0.008
   0.12500000 -0.00000000  0.00000000       0.047
   0.25000000 -0.00000000  0.00000000       0.047
   0.37500000 -0.00000000  0.00000000       0.047
   0.50000000 -0.00000000  0.00000000       0.023
   0.12500000  0.12500000  0.00000000       0.047
   0.25000000  0.12500000  0.00000000       0.094
   0.37500000  0.12500000  0.00000000       0.094
   0.25000000  0.25000000  0.00000000       0.047
   0.37500000  0.25000000  0.00000000       0.047
   0.00000000  0.00000000  0.50000000       0.008
   0.12500000 -0.00000000  0.50000000       0.047
   0.25000000 -0.00000000  0.50000000       0.047
   0.37500000 -0.00000000  0.50000000       0.047
   0.50000000 -0.00000000  0.50000000       0.023
   0.12500000  0.12500000  0.50000000       0.047
   0.25000000  0.12500000  0.50000000       0.094
   0.37500000  0.12500000  0.50000000       0.094
   0.25000000  0.25000000  0.50000000       0.047
   0.37500000  0.25000000  0.50000000       0.047
 
 position of ions in fractional coordinates (direct lattice) 
   0.33333300  0.66666700  0.25000000
   0.66666700  0.33333300  0.75000000
   0.33333300  0.66666700  0.85517400
   0.66666700  0.33333300  0.14482600
   0.66666600  0.33333300  0.35517400
   0.33333400  0.66666700  0.64482600
 
 position of ions in cartesian coordinates  (Angst):
  -0.00000160  1.84193057  3.71975108
   1.59515946  0.92096390 11.15925323
  -0.00000160  1.84193057 12.72413762
   1.59515946  0.92096390  2.15486668
   1.59515627  0.92096390  5.28463547
   0.00000160  1.84193057  9.59436883
 


--------------------------------------------------------------------------------------------------------


 k-point  1 :   0.0000 0.0000 0.0000  plane waves:    2895
 k-point  2 :   0.1250-0.0000 0.0000  plane waves:    2887
 k-point  3 :   0.2500-0.0000 0.0000  plane waves:    2848
 k-point  4 :   0.3750-0.0000 0.0000  plane waves:    2840
 k-point  5 :   0.5000-0.0000 0.0000  plane waves:    2784
 k-point  6 :   0.1250 0.1250 0.0000  plane waves:    2847
 k-point  7 :   0.2500 0.1250 0.0000  plane waves:    2847
 k-point  8 :   0.3750 0.1250 0.0000  plane waves:    2822
 k-point  9 :   0.2500 0.2500 0.0000  plane waves:    2838
 k-point 10 :   0.3750 0.2500 0.0000  plane waves:    2844
 k-point 11 :   0.0000 0.0000 0.5000  plane waves:    2884
 k-point 12 :   0.1250-0.0000 0.5000  plane waves:    2886
 k-point 13 :   0.2500-0.0000 0.5000  plane waves:    2860
 k-point 14 :   0.3750-0.0000 0.5000  plane waves:    2836
 k-point 15 :   0.5000-0.0000 0.5000  plane waves:    2828
 k-point 16 :   0.1250 0.1250 0.5000  plane waves:    2852
 k-point 17 :   0.2500 0.1250 0.5000  plane waves:    2844
 k-point 18 :   0.3750 0.1250 0.5000  plane waves:    2832
 k-point 19 :   0.2500 0.2500 0.5000  plane waves:    2830
 k-point 20 :   0.3750 0.2500 0.5000  plane waves:    2832

 maximum and minimum number of plane-waves per node :      1454     1377

 maximum number of plane-waves:      2895
 maximum index in each direction: 
   IXMAX=    5   IYMAX=    5   IZMAX=   25
   IXMIN=   -6   IYMIN=   -5   IZMIN=  -26


 parallel 3D FFT for wavefunctions:
    minimum data exchange during FFTs selected (reduces bandwidth)
 parallel 3D FFT for charge:
    minimum data exchange during FFTs selected (reduces bandwidth)


 total amount of memory used by VASP MPI-rank0    49333. kBytes
=======================================================================

   base      :      30000. kBytes
   nonl-proj :       8467. kBytes
   fftplans  :       2162. kBytes
   grid      :       3449. kBytes
   one-center:         46. kBytes
   wavefun   :       5209. kBytes
 
     INWAV:  cpu time    0.0000: real time    0.0004
 Broyden mixing: mesh for mixing (old mesh)
   NGX = 11   NGY = 11   NGZ = 51
  (NGX  = 36   NGY  = 36   NGZ  =160)
  gives a total of   6171 points

 initial charge density was supplied:
 charge density of overlapping atoms calculated
 number of electron      36.0000000 magnetization 
 keeping initial charge density in first step


--------------------------------------------------------------------------------------------------------


 Maximum index for augmentation-charges         3021 (set IRDMAX)


--------------------------------------------------------------------------------------------------------


 First call to EWALD:  gamma=   0.349
 Maximum number of real-space cells 5x 5x 1
 Maximum number of reciprocal cells 2x 2x 7

    FEWALD:  cpu time    0.0010: real time    0.0015


--------------------------------------- Iteration      1(   1)  ---------------------------------------


    POTLOK:  cpu time    0.0300: real time    0.0552
    SETDIJ:  cpu time    0.0050: real time    0.0049
     EDDAV:  cpu time    0.4179: real time    0.4223
 BZINTS: Fermi energy: 14.342707; 36.000000 electrons
         Band energy: 170.963754;  BLOECHL correction: -0.193134
       DOS:  cpu time    0.0050: real time    0.0048
    --------------------------------------------
      LOOP:  cpu time    0.4579: real time    0.4873

 eigenvalue-minimisations  :   880
 total energy-change (2. order) : 0.2042062E+03  (-0.1490191E+04)
 number of electron      36.0000000 magnetization 
 augmentation part       36.0000000 magnetization 

 Free energy of the ion-electron system (eV)
  ---------------------------------------------------
  alpha Z        PSCENC =        90.42577596
  Ewald energy   TEWEN  =     -1146.88905665
  -Hartree energ DENC   =      -535.10238363
  -exchange      EXHF   =         0.00000000
  -V(xc)+E(xc)   XCENC  =       -72.59368150
  PAW double counting   =       813.77302396     -658.68146406
  entropy T*S    EENTRO =         0.00000000
  eigenvalues    EBANDS =       170.96375375
  atomic energy  EATOM  =      1542.31022798
  Solvation  Ediel_sol  =         0.00000000
  ---------------------------------------------------
  free energy    TOTEN  =       204.20619583 eV

  energy without entropy =      204.20619583  energy(sigma->0) =      204.20619583


--------------------------------------------------------------------------------------------------------




--------------------------------------- Iteration      1(   2)  ---------------------------------------


     EDDAV:  cpu time    0.5259: real time    0.5274
 BZINTS: Fermi energy:  5.506226; 36.000000 electrons
         Band energy: -61.979825;  BLOECHL correction:  0.000000
       DOS:  cpu time    0.0010: real time    0.0016
    --------------------------------------------
      LOOP:  cpu time    0.5269: real time    0.5290

 eigenvalue-minimisations  :  1198
 total energy-change (2. order) :-0.2329436E+03  (-0.2270526E+03)
 number of electron      36.0000000 magnetization 
 augmentation part       36.0000000 magnetization 

 Free energy of the ion-electron system (eV)
  ---------------------------------------------------
  alpha Z        PSCENC =        90.42577596
  Ewald energy   TEWEN  =     -1146.88905665
  -Hartree energ DENC   =      -535.10238363
  -exchange      EXHF   =         0.00000000
  -V(xc)+E(xc)   XCENC  =       -72.59368150
  PAW double counting   =       813.77302396     -658.68146406
  entropy T*S    EENTRO =         0.00000000
  eigenvalues    EBANDS =       -61.97982500
  atomic energy  EATOM  =      1542.31022798
  Solvation  Ediel_sol  =         0.00000000
  ---------------------------------------------------
  free energy    TOTEN  =       -28.73738293 eV

  energy without entropy =      -28.73738293  energy(sigma->0) =      -28.73738293


--------------------------------------------------------------------------------------------------------




--------------------------------------- Iteration      1(   3)  ---------------------------------------


     EDDAV:  cpu time    0.5169: real time    0.5198
 BZINTS: Fermi energy:  3.912355; 36.000000 electrons
         Band energy: -79.539411;  BLOECHL correction:  0.000000
       DOS:  cpu time    0.0010: real time    0.0012
    --------------------------------------------
      LOOP:  cpu time    0.5179: real time    0.5209

 eigenvalue-minimisations  :  1174
 total energy-change (2. order) :-0.1755959E+02  (-0.1748031E+02)
 number of electron      36.0000000 magnetization 
 augmentation part       36.0000000 magnetization 

 Free energy of the ion-electron system (eV)
  ---------------------------------------------------
  alpha Z        PSCENC =        90.42577596
  Ewald energy   TEWEN  =     -1146.88905665
  -Hartree energ DENC   =      -535.10238363
  -exchange      EXHF   =         0.00000000
  -V(xc)+E(xc)   XCENC  =       -72.59368150
  PAW double counting   =       813.77302396     -658.68146406
  entropy T*S    EENTRO =         0.00000000
  eigenvalues    EBANDS =       -79.53941121
  atomic energy  EATOM  =      1542.31022798
  Solvation  Ediel_sol  =         0.00000000
  ---------------------------------------------------
  free energy    TOTEN  =       -46.29696913 eV

  energy without entropy =      -46.29696913  energy(sigma->0) =      -46.29696913


--------------------------------------------------------------------------------------------------------




--------------------------------------- Iteration      1(   4)  ---------------------------------------


     EDDAV:  cpu time    0.5169: real time    0.5174
 BZINTS: Fermi energy:  3.898870; 36.000000 electrons
         Band energy: -80.047517;  BLOECHL correction:  0.000000
       DOS:  cpu time    0.0010: real time    0.0013
    --------------------------------------------
      LOOP:  cpu time    0.5179: real time    0.5187

 eigenvalue-minimisations  :  1178
 total energy-change (2. order) :-0.5081056E+00  (-0.5068438E+00)
 number of electron      36.0000000 magnetization 
 augmentation part       36.0000000 magnetization 

 Free energy of the ion-electron system (eV)
  ---------------------------------------------------
  alpha Z        PSCENC =        90.42577596
  Ewald energy   TEWEN  =     -1146.88905665
  -Hartree energ DENC   =      -535.10238363
  -exchange      EXHF   =         0.00000000
  -V(xc)+E(xc)   XCENC  =       -72.59368150
  PAW double counting   =       813.77302396     -658.68146406
  entropy T*S    EENTRO =         0.00000000
  eigenvalues    EBANDS =       -80.04751676
  atomic energy  EATOM  =      1542.31022798
  Solvation  Ediel_sol  =         0.00000000
  ---------------------------------------------------
  free energy    TOTEN  =       -46.80507469 eV

  energy without entropy =      -46.80507469  energy(sigma->0) =      -46.80507469


--------------------------------------------------------------------------------------------------------




--------------------------------------- Iteration      1(   5)  ---------------------------------------


     EDDAV:  cpu time    0.5239: real time    0.5274
 BZINTS: Fermi energy:  3.873283; 36.000000 electrons
         Band energy: -80.062816;  BLOECHL correction:  0.000000
       DOS:  cpu time    0.0010: real time    0.0013
    CHARGE:  cpu time    0.0350: real time    0.0357
    MIXING:  cpu time    0.0020: real time    0.0011
    --------------------------------------------
      LOOP:  cpu time    0.5619: real time    0.5655

 eigenvalue-minimisations  :  1194
 total energy-change (2. order) :-0.1529957E-01  (-0.1529379E-01)
 number of electron      36.0000009 magnetization 
 augmentation part       -1.8907239 magnetization 

 Broyden mixing:
  rms(total) = 0.97335E+00    rms(broyden)= 0.97334E+00
  rms(prec ) = 0.12179E+01
  weight for this iteration     100.00

 Free energy of the ion-electron system (eV)
  ---------------------------------------------------
  alpha Z        PSCENC =        90.42577596
  Ewald energy   TEWEN  =     -1146.88905665
  -Hartree energ DENC   =      -535.10238363
  -exchange      EXHF   =         0.00000000
  -V(xc)+E(xc)   XCENC  =       -72.59368150
  PAW double counting   =       813.77302396     -658.68146406
  entropy T*S    EENTRO =         0.00000000
  eigenvalues    EBANDS =       -80.06281633
  atomic energy  EATOM  =      1542.31022798
  Solvation  Ediel_sol  =         0.00000000
  ---------------------------------------------------
  free energy    TOTEN  =       -46.82037425 eV

  energy without entropy =      -46.82037425  energy(sigma->0) =      -46.82037425


--------------------------------------------------------------------------------------------------------




--------------------------------------- Iteration      1(   6)  ---------------------------------------


    POTLOK:  cpu time    0.0260: real time    0.0265
    SETDIJ:  cpu time    0.0050: real time    0.0042
    EDDIAG:  cpu time    0.0880: real time    0.0885
  RMM-DIIS:  cpu time    0.3479: real time    0.3479
    ORTHCH:  cpu time    0.0090: real time    0.0099
 BZINTS: Fermi energy:  2.894323; 36.000000 electrons
         Band energy: -79.164999;  BLOECHL correction:  0.000000
       DOS:  cpu time    0.0020: real time    0.0012
    CHARGE:  cpu time    0.0350: real time    0.0353
    MIXING:  cpu time    0.0010: real time    0.0009
    --------------------------------------------
      LOOP:  cpu time    0.5139: real time    0.5142

 eigenvalue-minimisations  :   986
 total energy-change (2. order) : 0.2382673E+01  (-0.2432240E+01)
 number of electron      36.0000006 magnetization 
 augmentation part       -0.8587909 magnetization 

 Broyden mixing:
  rms(total) = 0.33848E+00    rms(broyden)= 0.33848E+00
  rms(prec ) = 0.49573E+00
  weight for this iteration     100.00

 eigenvalues of (default mixing * dielectric matrix)
  average eigenvalue GAMMA=   0.8722
  0.8722

 Free energy of the ion-electron system (eV)
  ---------------------------------------------------
  alpha Z        PSCENC =        90.42577596
  Ewald energy   TEWEN  =     -1146.88905665
  -Hartree energ DENC   =      -533.60700603
  -exchange      EXHF   =         0.00000000
  -V(xc)+E(xc)   XCENC  =       -70.82527370
  PAW double counting   =       847.85099974     -694.53836915
  entropy T*S    EENTRO =         0.00000000
  eigenvalues    EBANDS =       -79.16499915
  atomic energy  EATOM  =      1542.31022798
  Solvation  Ediel_sol  =         0.00000000
  ---------------------------------------------------
  free energy    TOTEN  =       -44.43770099 eV

  energy without entropy =      -44.43770099  energy(sigma->0) =      -44.43770099


--------------------------------------------------------------------------------------------------------




--------------------------------------- Iteration      1(   7)  ---------------------------------------


    POTLOK:  cpu time    0.0260: real time    0.0283
    SETDIJ:  cpu time    0.0040: real time    0.0042
    EDDIAG:  cpu time    0.0880: real time    0.0875
  RMM-DIIS:  cpu time    0.3449: real time    0.3455
    ORTHCH:  cpu time    0.0100: real time    0.0100
 BZINTS: Fermi energy:  3.212269; 36.000000 electrons
         Band energy: -73.409660;  BLOECHL correction:  0.000000
       DOS:  cpu time    0.0010: real time    0.0011
    CHARGE:  cpu time    0.0360: real time    0.0354
    MIXING:  cpu time    0.0010: real time    0.0009
    --------------------------------------------
      LOOP:  cpu time    0.5109: real time    0.5130

 eigenvalue-minimisations  :   968
 total energy-change (2. order) : 0.7428160E+00  (-0.1982684E+00)
 number of electron      36.0000007 magnetization 
 augmentation part       -1.1136066 magnetization 

 Broyden mixing:
  rms(total) = 0.17927E+00    rms(broyden)= 0.17927E+00
  rms(prec ) = 0.21387E+00
  weight for this iteration     100.00

 eigenvalues of (default mixing * dielectric matrix)
  average eigenvalue GAMMA=   1.4067
  0.7559  2.0576

 Free energy of the ion-electron system (eV)
  ---------------------------------------------------
  alpha Z        PSCENC =        90.42577596
  Ewald energy   TEWEN  =     -1146.88905665
  -Hartree energ DENC   =      -537.93035647
  -exchange      EXHF   =         0.00000000
  -V(xc)+E(xc)   XCENC  =       -71.02012552
  PAW double counting   =       881.16410845     -728.34579840
  entropy T*S    EENTRO =         0.00000000
  eigenvalues    EBANDS =       -73.40966038
  atomic energy  EATOM  =      1542.31022798
  Solvation  Ediel_sol  =         0.00000000
  ---------------------------------------------------
  free energy    TOTEN  =       -43.69488503 eV

  energy without entropy =      -43.69488503  energy(sigma->0) =      -43.69488503


--------------------------------------------------------------------------------------------------------




--------------------------------------- Iteration      1(   8)  ---------------------------------------


    POTLOK:  cpu time    0.0250: real time    0.0261
    SETDIJ:  cpu time    0.0050: real time    0.0042
    EDDIAG:  cpu time    0.0870: real time    0.0876
  RMM-DIIS:  cpu time    0.3599: real time    0.3595
    ORTHCH:  cpu time    0.0100: real time    0.0099
 BZINTS: Fermi energy:  3.374858; 36.000000 electrons
         Band energy: -68.484631;  BLOECHL correction:  0.000000
       DOS:  cpu time    0.0010: real time    0.0012
    CHARGE:  cpu time    0.0360: real time    0.0352
    MIXING:  cpu time    0.0010: real time    0.0015
    --------------------------------------------
      LOOP:  cpu time    0.5249: real time    0.5254

 eigenvalue-minimisations  :  1009
 total energy-change (2. order) : 0.6361697E-01  (-0.8931006E-01)
 number of electron      36.0000007 magnetization 
 augmentation part       -1.1700800 magnetization 

 Broyden mixing:
  rms(total) = 0.83274E-01    rms(broyden)= 0.83272E-01
  rms(prec ) = 0.11117E+00
  weight for this iteration     100.00

 eigenvalues of (default mixing * dielectric matrix)
  average eigenvalue GAMMA=   1.4753
  2.1192  1.4905  0.8163

 Free energy of the ion-electron system (eV)
  ---------------------------------------------------
  alpha Z        PSCENC =        90.42577596
  Ewald energy   TEWEN  =     -1146.88905665
  -Hartree energ DENC   =      -542.19100006
  -exchange      EXHF   =         0.00000000
  -V(xc)+E(xc)   XCENC  =       -70.63367460
  PAW double counting   =       931.65198141     -779.82089070
  entropy T*S    EENTRO =         0.00000000
  eigenvalues    EBANDS =       -68.48463142
  atomic energy  EATOM  =      1542.31022798
  Solvation  Ediel_sol  =         0.00000000
  ---------------------------------------------------
  free energy    TOTEN  =       -43.63126806 eV

  energy without entropy =      -43.63126806  energy(sigma->0) =      -43.63126806


--------------------------------------------------------------------------------------------------------




--------------------------------------- Iteration      1(   9)  ---------------------------------------


    POTLOK:  cpu time    0.0250: real time    0.0278
    SETDIJ:  cpu time    0.0050: real time    0.0042
    EDDIAG:  cpu time    0.0870: real time    0.0876
  RMM-DIIS:  cpu time    0.3729: real time    0.3720
    ORTHCH:  cpu time    0.0090: real time    0.0099
 BZINTS: Fermi energy:  3.240006; 36.000000 electrons
         Band energy: -68.905491;  BLOECHL correction:  0.000000
       DOS:  cpu time    0.0010: real time    0.0012
    CHARGE:  cpu time    0.0350: real time    0.0352
    MIXING:  cpu time    0.0020: real time    0.0010
    --------------------------------------------
      LOOP:  cpu time    0.5369: real time    0.5389

 eigenvalue-minimisations  :  1037
 total energy-change (2. order) : 0.1132397E-01  (-0.2803329E-01)
 number of electron      36.0000007 magnetization 
 augmentation part       -1.0468438 magnetization 

 Broyden mixing:
  rms(total) = 0.55171E-01    rms(broyden)= 0.55170E-01
  rms(prec ) = 0.76698E-01
  weight for this iteration     100.00

 eigenvalues of (default mixing * dielectric matrix)
  average eigenvalue GAMMA=   1.5268
  2.1492  2.1492  0.9045  0.9045

 Free energy of the ion-electron system (eV)
  ---------------------------------------------------
  alpha Z        PSCENC =        90.42577596
  Ewald energy   TEWEN  =     -1146.88905665
  -Hartree energ DENC   =      -541.84078303
  -exchange      EXHF   =         0.00000000
  -V(xc)+E(xc)   XCENC  =       -70.37815271
  PAW double counting   =       938.41673301     -786.75919718
  entropy T*S    EENTRO =         0.00000000
  eigenvalues    EBANDS =       -68.90549148
  atomic energy  EATOM  =      1542.31022798
  Solvation  Ediel_sol  =         0.00000000
  ---------------------------------------------------
  free energy    TOTEN  =       -43.61994409 eV

  energy without entropy =      -43.61994409  energy(sigma->0) =      -43.61994409


--------------------------------------------------------------------------------------------------------




--------------------------------------- Iteration      1(  10)  ---------------------------------------


    POTLOK:  cpu time    0.0250: real time    0.0261
    SETDIJ:  cpu time    0.0050: real time    0.0042
    EDDIAG:  cpu time    0.0870: real time    0.0876
  RMM-DIIS:  cpu time    0.3799: real time    0.3789
    ORTHCH:  cpu time    0.0090: real time    0.0099
 BZINTS: Fermi energy:  3.368448; 36.000000 electrons
         Band energy: -68.019244;  BLOECHL correction:  0.000000
       DOS:  cpu time    0.0010: real time    0.0012
    CHARGE:  cpu time    0.0350: real time    0.0352
    MIXING:  cpu time    0.0020: real time    0.0010
    --------------------------------------------
      LOOP:  cpu time    0.5439: real time    0.5442

 eigenvalue-minimisations  :  1051
 total energy-change (2. order) : 0.1475676E-01  (-0.6210990E-02)
 number of electron      36.0000007 magnetization 
 augmentation part       -1.1061363 magnetization 

 Broyden mixing:
  rms(total) = 0.80432E-02    rms(broyden)= 0.80428E-02
  rms(prec ) = 0.10296E-01
  weight for this iteration     100.00

 eigenvalues of (default mixing * dielectric matrix)
  average eigenvalue GAMMA=   1.4314
  2.4518  1.6215  0.8844  0.8844  1.3148

 Free energy of the ion-electron system (eV)
  ---------------------------------------------------
  alpha Z        PSCENC =        90.42577596
  Ewald energy   TEWEN  =     -1146.88905665
  -Hartree energ DENC   =      -542.61960396
  -exchange      EXHF   =         0.00000000
  -V(xc)+E(xc)   XCENC  =       -70.42757936
  PAW double counting   =       944.37876835     -792.76447554
  entropy T*S    EENTRO =         0.00000000
  eigenvalues    EBANDS =       -68.01924412
  atomic energy  EATOM  =      1542.31022798
  Solvation  Ediel_sol  =         0.00000000
  ---------------------------------------------------
  free energy    TOTEN  =       -43.60518733 eV

  energy without entropy =      -43.60518733  energy(sigma->0) =      -43.60518733


--------------------------------------------------------------------------------------------------------




--------------------------------------- Iteration      1(  11)  ---------------------------------------


    POTLOK:  cpu time    0.0260: real time    0.0290
    SETDIJ:  cpu time    0.0040: real time    0.0042
    EDDIAG:  cpu time    0.0870: real time    0.0873
  RMM-DIIS:  cpu time    0.3919: real time    0.3912
    ORTHCH:  cpu time    0.0090: real time    0.0099
 BZINTS: Fermi energy:  3.298749; 36.000000 electrons
         Band energy: -67.892880;  BLOECHL correction:  0.000000
       DOS:  cpu time    0.0010: real time    0.0012
    CHARGE:  cpu time    0.0350: real time    0.0351
    MIXING:  cpu time    0.0020: real time    0.0010
    --------------------------------------------
      LOOP:  cpu time    0.5559: real time    0.5589

 eigenvalue-minimisations  :  1105
 total energy-change (2. order) :-0.6244178E-05  (-0.2813939E-03)
 number of electron      36.0000007 magnetization 
 augmentation part       -1.0999793 magnetization 

 Broyden mixing:
  rms(total) = 0.29978E-02    rms(broyden)= 0.29977E-02
  rms(prec ) = 0.36410E-02
  weight for this iteration     100.00

 eigenvalues of (default mixing * dielectric matrix)
  average eigenvalue GAMMA=   1.6545
  2.7407  2.6283  1.8179  0.8909  0.8909  0.9586

 Free energy of the ion-electron system (eV)
  ---------------------------------------------------
  alpha Z        PSCENC =        90.42577596
  Ewald energy   TEWEN  =     -1146.88905665
  -Hartree energ DENC   =      -542.76376136
  -exchange      EXHF   =         0.00000000
  -V(xc)+E(xc)   XCENC  =       -70.40115167
  PAW double counting   =       944.69374517     -793.08809265
  entropy T*S    EENTRO =         0.00000000
  eigenvalues    EBANDS =       -67.89288038
  atomic energy  EATOM  =      1542.31022798
  Solvation  Ediel_sol  =         0.00000000
  ---------------------------------------------------
  free energy    TOTEN  =       -43.60519358 eV

  energy without entropy =      -43.60519358  energy(sigma->0) =      -43.60519358


--------------------------------------------------------------------------------------------------------




--------------------------------------- Iteration      1(  12)  ---------------------------------------


    POTLOK:  cpu time    0.0250: real time    0.0259
    SETDIJ:  cpu time    0.0050: real time    0.0042
    EDDIAG:  cpu time    0.0870: real time    0.0874
  RMM-DIIS:  cpu time    0.3929: real time    0.3929
    ORTHCH:  cpu time    0.0090: real time    0.0099
 BZINTS: Fermi energy:  3.302635; 36.000000 electrons
         Band energy: -67.716986;  BLOECHL correction:  0.000000
       DOS:  cpu time    0.0020: real time    0.0012
    CHARGE:  cpu time    0.0350: real time    0.0351
    MIXING:  cpu time    0.0020: real time    0.0011
    --------------------------------------------
      LOOP:  cpu time    0.5579: real time    0.5577

 eigenvalue-minimisations  :  1117
 total energy-change (2. order) :-0.1414700E-03  (-0.4986876E-04)
 number of electron      36.0000007 magnetization 
 augmentation part       -1.0983844 magnetization 

 Broyden mixing:
  rms(total) = 0.20193E-02    rms(broyden)= 0.20193E-02
  rms(prec ) = 0.25395E-02
  weight for this iteration     100.00

 eigenvalues of (default mixing * dielectric matrix)
  average eigenvalue GAMMA=   1.5944
  2.9518  2.3668  1.5673  1.5673  0.8920  0.8920  0.9240

 Free energy of the ion-electron system (eV)
  ---------------------------------------------------
  alpha Z        PSCENC =        90.42577596
  Ewald energy   TEWEN  =     -1146.88905665
  -Hartree energ DENC   =      -542.96352626
  -exchange      EXHF   =         0.00000000
  -V(xc)+E(xc)   XCENC  =       -70.39137419
  PAW double counting   =       944.36266789     -792.74306339
  entropy T*S    EENTRO =         0.00000000
  eigenvalues    EBANDS =       -67.71698640
  atomic energy  EATOM  =      1542.31022798
  Solvation  Ediel_sol  =         0.00000000
  ---------------------------------------------------
  free energy    TOTEN  =       -43.60533505 eV

  energy without entropy =      -43.60533505  energy(sigma->0) =      -43.60533505


--------------------------------------------------------------------------------------------------------




--------------------------------------- Iteration      1(  13)  ---------------------------------------


    POTLOK:  cpu time    0.0250: real time    0.0280
    SETDIJ:  cpu time    0.0050: real time    0.0042
    EDDIAG:  cpu time    0.0870: real time    0.0873
  RMM-DIIS:  cpu time    0.3989: real time    0.3982
    ORTHCH:  cpu time    0.0080: real time    0.0098
 BZINTS: Fermi energy:  3.304637; 36.000000 electrons
         Band energy: -67.713490;  BLOECHL correction:  0.000000
       DOS:  cpu time    0.0020: real time    0.0012
    CHARGE:  cpu time    0.0350: real time    0.0351
    MIXING:  cpu time    0.0020: real time    0.0012
    --------------------------------------------
      LOOP:  cpu time    0.5629: real time    0.5650

 eigenvalue-minimisations  :  1145
 total energy-change (2. order) :-0.6113599E-05  (-0.3009223E-04)
 number of electron      36.0000007 magnetization 
 augmentation part       -1.1017221 magnetization 

 Broyden mixing:
  rms(total) = 0.17619E-02    rms(broyden)= 0.17619E-02
  rms(prec ) = 0.23597E-02
  weight for this iteration     100.00

 eigenvalues of (default mixing * dielectric matrix)
  average eigenvalue GAMMA=   1.7417
  3.2183  2.6518  2.6518  1.6130  1.1401  0.8852  0.8852  0.8885

 Free energy of the ion-electron system (eV)
  ---------------------------------------------------
  alpha Z        PSCENC =        90.42577596
  Ewald energy   TEWEN  =     -1146.88905665
  -Hartree energ DENC   =      -542.96192600
  -exchange      EXHF   =         0.00000000
  -V(xc)+E(xc)   XCENC  =       -70.39503251
  PAW double counting   =       944.53279870     -792.91463825
  entropy T*S    EENTRO =         0.00000000
  eigenvalues    EBANDS =       -67.71349039
  atomic energy  EATOM  =      1542.31022798
  Solvation  Ediel_sol  =         0.00000000
  ---------------------------------------------------
  free energy    TOTEN  =       -43.60534116 eV

  energy without entropy =      -43.60534116  energy(sigma->0) =      -43.60534116


--------------------------------------------------------------------------------------------------------




--------------------------------------- Iteration      1(  14)  ---------------------------------------


    POTLOK:  cpu time    0.0250: real time    0.0266
    SETDIJ:  cpu time    0.0050: real time    0.0042
    EDDIAG:  cpu time    0.0870: real time    0.0873
  RMM-DIIS:  cpu time    0.3060: real time    0.3056
    ORTHCH:  cpu time    0.0090: real time    0.0098
 BZINTS: Fermi energy:  3.302924; 36.000000 electrons
         Band energy: -67.732224;  BLOECHL correction:  0.000000
       DOS:  cpu time    0.0020: real time    0.0011
    CHARGE:  cpu time    0.0350: real time    0.0351
    MIXING:  cpu time    0.0010: real time    0.0012
    --------------------------------------------
      LOOP:  cpu time    0.4699: real time    0.4710

 eigenvalue-minimisations  :   846
 total energy-change (2. order) : 0.1221769E-04  (-0.5702117E-05)
 number of electron      36.0000007 magnetization 
 augmentation part       -1.1001694 magnetization 

 Broyden mixing:
  rms(total) = 0.26643E-03    rms(broyden)= 0.26640E-03
  rms(prec ) = 0.31050E-03
  weight for this iteration     100.00

 eigenvalues of (default mixing * dielectric matrix)
  average eigenvalue GAMMA=   1.6065
  3.1011  2.6746  2.3063  1.5148  1.2174  0.8836  0.8836  0.9383  0.9383

 Free energy of the ion-electron system (eV)
  ---------------------------------------------------
  alpha Z        PSCENC =        90.42577596
  Ewald energy   TEWEN  =     -1146.88905665
  -Hartree energ DENC   =      -542.94545678
  -exchange      EXHF   =         0.00000000
  -V(xc)+E(xc)   XCENC  =       -70.39246041
  PAW double counting   =       944.37780341     -792.75993801
  entropy T*S    EENTRO =         0.00000000
  eigenvalues    EBANDS =       -67.73222444
  atomic energy  EATOM  =      1542.31022798
  Solvation  Ediel_sol  =         0.00000000
  ---------------------------------------------------
  free energy    TOTEN  =       -43.60532894 eV

  energy without entropy =      -43.60532894  energy(sigma->0) =      -43.60532894


--------------------------------------------------------------------------------------------------------




--------------------------------------- Iteration      1(  15)  ---------------------------------------


    POTLOK:  cpu time    0.0260: real time    0.0280
    SETDIJ:  cpu time    0.0040: real time    0.0042
    EDDIAG:  cpu time    0.0870: real time    0.0873
  RMM-DIIS:  cpu time    0.2540: real time    0.2536
    ORTHCH:  cpu time    0.0100: real time    0.0098
 BZINTS: Fermi energy:  3.302724; 36.000000 electrons
         Band energy: -67.725824;  BLOECHL correction:  0.000000
       DOS:  cpu time    0.0010: real time    0.0011
    --------------------------------------------
      LOOP:  cpu time    0.3819: real time    0.3840

 eigenvalue-minimisations  :   684
 total energy-change (2. order) :-0.4052283E-06  (-0.9518439E-06)
 number of electron      36.0000007 magnetization 
 augmentation part       -1.1001694 magnetization 

 Free energy of the ion-electron system (eV)
  ---------------------------------------------------
  alpha Z        PSCENC =        90.42577596
  Ewald energy   TEWEN  =     -1146.88905665
  -Hartree energ DENC   =      -542.95269849
  -exchange      EXHF   =         0.00000000
  -V(xc)+E(xc)   XCENC  =       -70.39235387
  PAW double counting   =       944.34451655     -792.72591708
  entropy T*S    EENTRO =         0.00000000
  eigenvalues    EBANDS =       -67.72582376
  atomic energy  EATOM  =      1542.31022798
  Solvation  Ediel_sol  =         0.00000000
  ---------------------------------------------------
  free energy    TOTEN  =       -43.60532935 eV

  energy without entropy =      -43.60532935  energy(sigma->0) =      -43.60532935


--------------------------------------------------------------------------------------------------------




 average (electrostatic) potential at core
  the test charge radii are     1.2296  0.9698
  (the norm of the test charge is              1.0000)
       1 -40.3325       2 -40.3325       3 -88.1703       4 -88.1703       5 -88.1703
       6 -88.1703
 
 
 
 E-fermi :   3.3027     XC(G=0):  -9.3248     alpha+bet : -9.6368


 k-point     1 :       0.0000    0.0000    0.0000
  band No.  band energies     occupation 
      1     -10.9296      2.00000
      2     -10.9106      2.00000
      3      -9.7292      2.00000
      4      -9.6952      2.00000
      5      -2.5232      2.00000
      6      -2.3617      2.00000
      7       0.5200      2.00000
      8       0.5200      2.00000
      9       0.5205      2.00000
     10       0.5205      2.00000
     11       1.1062      2.00000
     12       1.6249      2.00000
     13       1.6250      2.00000
     14       1.6268      2.00000
     15       1.6269      2.00000
     16       1.6748      2.00000
     17       2.9225      2.00000
     18       3.2984      2.00000
     19       5.8749      0.00000
     20       5.9117      0.00000
     21       6.0196      0.00000
     22       6.0856      0.00000

 k-point     2 :       0.1250   -0.0000    0.0000
  band No.  band energies     occupation 
      1     -10.7153      2.00000
      2     -10.6967      2.00000
      3      -9.6255      2.00000
      4      -9.5941      2.00000
      5      -2.2774      2.00000
      6      -2.1185      2.00000
      7       0.0555      2.00000
      8       0.0582      2.00000
      9       0.4568      2.00000
     10       0.6730      2.00000
     11       0.7541      2.00000
     12       0.7553      2.00000
     13       1.2889      2.00000
     14       1.2915      2.00000
     15       1.9308      2.00000
     16       2.2148      2.00000
     17       2.8434      2.00000
     18       3.0855      2.00000
     19       5.5208      0.00000
     20       5.6697      0.00000
     21       5.7089      0.00000
     22       5.8195      0.00000

 k-point     3 :       0.2500   -0.0000    0.0000
  band No.  band energies     occupation 
      1     -10.1456      2.00000
      2     -10.1289      2.00000
      3      -9.3531      2.00000
      4      -9.3287      2.00000
      5      -1.8874      2.00000
      6      -1.7766      2.00000
      7      -0.6912      2.00000
      8      -0.6477      2.00000
      9      -0.4609      2.00000
     10      -0.3594      2.00000
     11       0.6534      2.00000
     12       0.6569      2.00000
     13       1.3400      2.00000
     14       1.3436      2.00000
     15       1.7044      2.00000
     16       1.9132      2.00000
     17       2.3699      2.00000
     18       2.4184      2.00000
     19       5.1191      0.00000
     20       5.4390      0.00000
     21       5.4431      0.00000
     22       5.4564      0.00000

 k-point     4 :       0.3750   -0.0000    0.0000
  band No.  band energies     occupation 
      1      -9.4680      2.00000
      2      -9.4561      2.00000
      3      -9.0395      2.00000
      4      -9.0252      2.00000
      5      -2.2849      2.00000
      6      -2.2502      2.00000
      7      -1.2972      2.00000
      8      -1.2542      2.00000
      9      -0.8462      2.00000
     10      -0.7612      2.00000
     11       0.1559      2.00000
     12       0.1599      2.00000
     13       1.3423      2.00000
     14       1.4499      2.00000
     15       1.9282      2.00000
     16       1.9367      2.00000
     17       2.1736      2.00000
     18       2.2244      2.00000
     19       5.2595      0.00000
     20       5.2686      0.00000
     21       5.4543      0.00000
     22       5.6334      0.00000

 k-point     5 :       0.5000   -0.0000    0.0000
  band No.  band energies     occupation 
      1      -9.1370      2.00000
      2      -9.1305      2.00000
      3      -8.8922      2.00000
      4      -8.8857      2.00000
      5      -2.6134      2.00000
      6      -2.5864      2.00000
      7      -1.6525      2.00000
      8      -1.6280      2.00000
      9      -0.9680      2.00000
     10      -0.8921      2.00000
     11      -0.0247      2.00000
     12      -0.0206      2.00000
     13       1.2469      2.00000
     14       1.2664      2.00000
     15       2.1535      2.00000
     16       2.1657      2.00000
     17       2.4773      2.00000
     18       2.4811      2.00000
     19       5.2843      0.00000
     20       5.2881      0.00000
     21       5.7740      0.00000
     22       5.8289      0.00000

 k-point     6 :       0.1250    0.1250    0.0000
  band No.  band energies     occupation 
      1     -10.3219      2.00000
      2     -10.3044      2.00000
      3      -9.4360      2.00000
      4      -9.4093      2.00000
      5      -1.9206      2.00000
      6      -1.7808      2.00000
      7      -0.5133      2.00000
      8      -0.5007      2.00000
      9      -0.0648      2.00000
     10       0.0773      2.00000
     11       0.4643      2.00000
     12       0.4904      2.00000
     13       1.0933      2.00000
     14       1.0951      2.00000
     15       2.0961      2.00000
     16       2.2985      2.00000
     17       2.5522      2.00000
     18       2.6278      2.00000
     19       5.0621      0.00000
     20       5.3278      0.00000
     21       5.5188      0.00000
     22       5.5863      0.00000

 k-point     7 :       0.2500    0.1250    0.0000
  band No.  band energies     occupation 
      1      -9.6866      2.00000
      2      -9.6725      2.00000
      3      -9.1332      2.00000
      4      -9.1150      2.00000
      5      -1.9392      2.00000
      6      -1.8861      2.00000
      7      -0.9507      2.00000
      8      -0.9195      2.00000
      9      -0.7082      2.00000
     10      -0.6347      2.00000
     11      -0.0663      2.00000
     12       0.0084      2.00000
     13       1.1907      2.00000
     14       1.1965      2.00000
     15       1.7876      2.00000
     16       1.8740      2.00000
     17       2.3025      2.00000
     18       2.3123      2.00000
     19       4.9960      0.00000
     20       5.2124      0.00000
     21       5.5348      0.00000
     22       5.6678      0.00000

 k-point     8 :       0.3750    0.1250    0.0000
  band No.  band energies     occupation 
      1      -9.1529      2.00000
      2      -9.1452      2.00000
      3      -8.8842      2.00000
      4      -8.8759      2.00000
      5      -2.3261      2.00000
      6      -2.2991      2.00000
      7      -1.7018      2.00000
      8      -1.6927      2.00000
      9      -0.8376      2.00000
     10      -0.7670      2.00000
     11      -0.0668      2.00000
     12      -0.0244      2.00000
     13       1.2004      2.00000
     14       1.2166      2.00000
     15       1.3287      2.00000
     16       1.3670      2.00000
     17       2.6249      2.00000
     18       2.6432      2.00000
     19       5.2707      0.00000
     20       5.3349      0.00000
     21       5.7793      0.00000
     22       5.8545      0.00000

 k-point     9 :       0.2500    0.2500    0.0000
  band No.  band energies     occupation 
      1      -9.1683      2.00000
      2      -9.1596      2.00000
      3      -8.8760      2.00000
      4      -8.8661      2.00000
      5      -1.9668      2.00000
      6      -1.9383      2.00000
      7      -1.7532      2.00000
      8      -1.7420      2.00000
      9      -0.4878      2.00000
     10      -0.4633      2.00000
     11      -0.1388      2.00000
     12      -0.0506      2.00000
     13       0.2151      2.00000
     14       0.2377      2.00000
     15       1.4766      2.00000
     16       1.4873      2.00000
     17       2.6009      2.00000
     18       2.6106      2.00000
     19       5.1856      0.00000
     20       5.3138      0.00000
     21       5.9041      0.00000
     22       6.0934      0.00000

 k-point    10 :       0.3750    0.2500    0.0000
  band No.  band energies     occupation 
      1      -8.9306      2.00000
      2      -8.9275      2.00000
      3      -8.7535      2.00000
      4      -8.7503      2.00000
      5      -2.1374      2.00000
      6      -2.1266      2.00000
      7      -1.7914      2.00000
      8      -1.7753      2.00000
      9      -0.7776      2.00000
     10      -0.7404      2.00000
     11      -0.1066      2.00000
     12      -0.0857      2.00000
     13       0.1073      2.00000
     14       0.1583      2.00000
     15       1.0760      2.00000
     16       1.1160      2.00000
     17       2.9624      2.00000
     18       2.9836      2.00000
     19       4.9237      0.00000
     20       4.9326      0.00000
     21       6.1511      0.00000
     22       6.3239      0.00000

 k-point    11 :       0.0000    0.0000    0.5000
  band No.  band energies     occupation 
      1     -10.9203      2.00000
      2     -10.9203      2.00000
      3      -9.7121      2.00000
      4      -9.7121      2.00000
      5      -2.4453      2.00000
      6      -2.4453      2.00000
      7       0.5202      2.00000
      8       0.5202      2.00000
      9       0.5202      2.00000
     10       0.5202      2.00000
     11       1.3631      2.00000
     12       1.3631      2.00000
     13       1.6259      2.00000
     14       1.6259      2.00000
     15       1.6259      2.00000
     16       1.6259      2.00000
     17       3.1411      2.00000
     18       3.1411      2.00000
     19       5.8735      0.00000
     20       5.9040      0.00000
     21       5.9541      0.00000
     22       6.0897      0.00000

 k-point    12 :       0.1250   -0.0000    0.5000
  band No.  band energies     occupation 
      1     -10.7061      2.00000
      2     -10.7061      2.00000
      3      -9.6097      2.00000
      4      -9.6097      2.00000
      5      -2.2010      2.00000
      6      -2.2010      2.00000
      7       0.0566      2.00000
      8       0.0566      2.00000
      9       0.5715      2.00000
     10       0.5715      2.00000
     11       0.7547      2.00000
     12       0.7547      2.00000
     13       1.2902      2.00000
     14       1.2902      2.00000
     15       2.0431      2.00000
     16       2.0431      2.00000
     17       2.9904      2.00000
     18       2.9905      2.00000
     19       5.5779      0.00000
     20       5.6278      0.00000
     21       5.7031      0.00000
     22       5.8579      0.00000

 k-point    13 :       0.2500   -0.0000    0.5000
  band No.  band energies     occupation 
      1     -10.1373      2.00000
      2     -10.1373      2.00000
      3      -9.3408      2.00000
      4      -9.3408      2.00000
      5      -1.8338      2.00000
      6      -1.8338      2.00000
      7      -0.6751      2.00000
      8      -0.6751      2.00000
      9      -0.4022      2.00000
     10      -0.4022      2.00000
     11       0.6552      2.00000
     12       0.6552      2.00000
     13       1.3418      2.00000
     14       1.3418      2.00000
     15       1.8009      2.00000
     16       1.8009      2.00000
     17       2.3997      2.00000
     18       2.3997      2.00000
     19       5.2602      0.00000
     20       5.2631      0.00000
     21       5.4461      0.00000
     22       5.4578      0.00000

 k-point    14 :       0.3750   -0.0000    0.5000
  band No.  band energies     occupation 
      1      -9.4622      2.00000
      2      -9.4622      2.00000
      3      -9.0323      2.00000
      4      -9.0323      2.00000
      5      -2.2678      2.00000
      6      -2.2678      2.00000
      7      -1.2776      2.00000
      8      -1.2776      2.00000
      9      -0.8017      2.00000
     10      -0.8017      2.00000
     11       0.1579      2.00000
     12       0.1579      2.00000
     13       1.3940      2.00000
     14       1.3940      2.00000
     15       1.9324      2.00000
     16       1.9324      2.00000
     17       2.2010      2.00000
     18       2.2010      2.00000
     19       5.2640      0.00000
     20       5.2640      0.00000
     21       5.5374      0.00000
     22       5.5375      0.00000

 k-point    15 :       0.5000   -0.0000    0.5000
  band No.  band energies     occupation 
      1      -9.1338      2.00000
      2      -9.1338      2.00000
      3      -8.8890      2.00000
      4      -8.8890      2.00000
      5      -2.6000      2.00000
      6      -2.6000      2.00000
      7      -1.6411      2.00000
      8      -1.6411      2.00000
      9      -0.9291      2.00000
     10      -0.9291      2.00000
     11      -0.0227      2.00000
     12      -0.0227      2.00000
     13       1.2564      2.00000
     14       1.2565      2.00000
     15       2.1596      2.00000
     16       2.1596      2.00000
     17       2.4793      2.00000
     18       2.4793      2.00000
     19       5.2862      0.00000
     20       5.2862      0.00000
     21       5.8018      0.00000
     22       5.8061      0.00000

 k-point    16 :       0.1250    0.1250    0.5000
  band No.  band energies     occupation 
      1     -10.3133      2.00000
      2     -10.3133      2.00000
      3      -9.4226      2.00000
      4      -9.4226      2.00000
      5      -1.8536      2.00000
      6      -1.8536      2.00000
      7      -0.5088      2.00000
      8      -0.5087      2.00000
      9       0.0130      2.00000
     10       0.0130      2.00000
     11       0.4763      2.00000
     12       0.4763      2.00000
     13       1.0942      2.00000
     14       1.0942      2.00000
     15       2.1820      2.00000
     16       2.1820      2.00000
     17       2.6017      2.00000
     18       2.6017      2.00000
     19       5.1825      0.00000
     20       5.1844      0.00000
     21       5.5502      0.00000
     22       5.5609      0.00000

 k-point    17 :       0.2500    0.1250    0.5000
  band No.  band energies     occupation 
      1      -9.6796      2.00000
      2      -9.6796      2.00000
      3      -9.1240      2.00000
      4      -9.1240      2.00000
      5      -1.9130      2.00000
      6      -1.9130      2.00000
      7      -0.9370      2.00000
      8      -0.9370      2.00000
      9      -0.6713      2.00000
     10      -0.6713      2.00000
     11      -0.0263      2.00000
     12      -0.0263      2.00000
     13       1.1934      2.00000
     14       1.1935      2.00000
     15       1.8287      2.00000
     16       1.8287      2.00000
     17       2.3081      2.00000
     18       2.3081      2.00000
     19       5.1027      0.00000
     20       5.1027      0.00000
     21       5.5536      0.00000
     22       5.5701      0.00000

 k-point    18 :       0.3750    0.1250    0.5000
  band No.  band energies     occupation 
      1      -9.1491      2.00000
      2      -9.1491      2.00000
      3      -8.8800      2.00000
      4      -8.8800      2.00000
      5      -2.3127      2.00000
      6      -2.3127      2.00000
      7      -1.6974      2.00000
      8      -1.6974      2.00000
      9      -0.8030      2.00000
     10      -0.8030      2.00000
     11      -0.0442      2.00000
     12      -0.0442      2.00000
     13       1.2078      2.00000
     14       1.2078      2.00000
     15       1.3478      2.00000
     16       1.3478      2.00000
     17       2.6343      2.00000
     18       2.6343      2.00000
     19       5.3031      0.00000
     20       5.3031      0.00000
     21       5.8121      0.00000
     22       5.8150      0.00000

 k-point    19 :       0.2500    0.2500    0.5000
  band No.  band energies     occupation 
      1      -9.1641      2.00000
      2      -9.1640      2.00000
      3      -8.8710      2.00000
      4      -8.8710      2.00000
      5      -1.9527      2.00000
      6      -1.9527      2.00000
      7      -1.7474      2.00000
      8      -1.7474      2.00000
      9      -0.4793      2.00000
     10      -0.4793      2.00000
     11      -0.0905      2.00000
     12      -0.0905      2.00000
     13       0.2266      2.00000
     14       0.2266      2.00000
     15       1.4809      2.00000
     16       1.4810      2.00000
     17       2.6058      2.00000
     18       2.6058      2.00000
     19       5.2495      0.00000
     20       5.2498      0.00000
     21       5.8649      0.00000
     22       6.1877      0.00000

 k-point    20 :       0.3750    0.2500    0.5000
  band No.  band energies     occupation 
      1      -8.9291      2.00000
      2      -8.9291      2.00000
      3      -8.7519      2.00000
      4      -8.7519      2.00000
      5      -2.1321      2.00000
      6      -2.1321      2.00000
      7      -1.7831      2.00000
      8      -1.7831      2.00000
      9      -0.7600      2.00000
     10      -0.7600      2.00000
     11      -0.0989      2.00000
     12      -0.0989      2.00000
     13       0.1376      2.00000
     14       0.1376      2.00000
     15       1.0945      2.00000
     16       1.0945      2.00000
     17       2.9730      2.00000
     18       2.9730      2.00000
     19       4.9283      0.00000
     20       4.9283      0.00000
     21       6.2314      0.00000
     22       6.2714      0.00000


--------------------------------------------------------------------------------------------------------


 soft charge-density along one line, spin component           1
         0         1         2         3         4         5         6         7         8         9
 total charge-density along one line
 
 pseudopotential strength for first ion, spin component:           1
 -8.238  -0.000   0.000   0.000   0.000  -0.074   0.000  -0.000
 -0.000  -8.239   0.000  -0.000  -0.000   0.000  -0.074  -0.000
  0.000   0.000  -8.218  -0.000  -0.000  -0.000  -0.000  -0.075
  0.000  -0.000  -0.000  -8.239  -0.000  -0.000   0.000   0.000
  0.000  -0.000  -0.000  -0.000  -8.238  -0.000   0.000   0.000
 -0.074   0.000  -0.000  -0.000  -0.000   0.112  -0.000   0.000
  0.000  -0.074  -0.000   0.000   0.000  -0.000   0.112   0.000
 -0.000  -0.000  -0.075   0.000   0.000   0.000   0.000   0.112
 -0.000   0.000   0.000  -0.074   0.000   0.000  -0.000  -0.000
 -0.000   0.000   0.000   0.000  -0.074   0.000  -0.000  -0.000
  0.000  -0.000  -0.005   0.000  -0.000  -0.000   0.000   0.000
 -0.000   0.000   0.001  -0.000   0.000   0.000  -0.000  -0.000
 -0.000   0.000  -0.000  -0.000  -0.007   0.000  -0.000   0.000
 -0.000   0.000   0.000  -0.000  -0.000  -0.000  -0.000  -0.000
 -0.007  -0.000   0.000   0.000  -0.000  -0.000  -0.000  -0.000
  0.000  -0.000   0.000   0.000   0.004  -0.000   0.000  -0.000
  0.000  -0.000  -0.000   0.000   0.000  -0.000   0.000   0.000
  0.004   0.000  -0.000  -0.000   0.000   0.000  -0.000   0.000
 total augmentation occupancy for first ion, spin component:           1
  0.965  -0.000  -0.000  -0.000  -0.000   0.601   0.000  -0.000  -0.000  -0.000  -0.000   0.000   0.000   0.000  -0.065  -0.000
 -0.000   0.907   0.000   0.000   0.000  -0.000   0.839   0.000   0.000   0.000   0.000   0.000   0.000   0.000   0.000   0.000
 -0.000   0.000   1.029   0.000   0.000  -0.000  -0.000   0.501   0.000   0.000   0.111  -0.019  -0.000  -0.000   0.000   0.000
  0.000   0.000   0.000   0.907  -0.000  -0.000   0.000  -0.000   0.839   0.000   0.000   0.000  -0.000  -0.000   0.000   0.000
 -0.000  -0.000   0.000  -0.000   0.965  -0.000   0.000   0.000  -0.000   0.601   0.000  -0.000  -0.065   0.000  -0.000   0.007
  0.601  -0.000  -0.000   0.000  -0.000   0.678  -0.000  -0.000   0.000  -0.000   0.000   0.000   0.000  -0.000  -0.136  -0.000
  0.000   0.839   0.000   0.000   0.000   0.000   1.081   0.000   0.000   0.000   0.000   0.000   0.000   0.000   0.000  -0.000
 -0.000   0.000   0.501  -0.000   0.000  -0.000   0.000   0.476  -0.000   0.000   0.059  -0.021  -0.000  -0.000   0.000   0.000
 -0.000   0.000   0.000   0.839  -0.000   0.000   0.000  -0.000   1.081   0.000  -0.000   0.000  -0.000  -0.000   0.000   0.000
 -0.000  -0.000   0.000   0.000   0.601  -0.000  -0.000   0.000   0.000   0.678   0.000  -0.000  -0.136   0.000  -0.000   0.023
 -0.000   0.000   0.111   0.000   0.000   0.000  -0.000   0.059   0.000   0.000   1.207  -0.185   0.000  -0.000   0.000   0.000
  0.000  -0.000  -0.019   0.000  -0.000  -0.000   0.000  -0.021   0.000  -0.000  -0.185   0.042  -0.000  -0.000   0.000   0.000
  0.000  -0.000  -0.000   0.000  -0.065   0.000   0.000  -0.000  -0.000  -0.136  -0.000   0.000   0.217   0.000   0.000  -0.032
  0.000   0.000  -0.000   0.000  -0.000   0.000   0.000  -0.000   0.000   0.000  -0.000  -0.000  -0.000   0.264   0.000   0.000
 -0.065   0.000   0.000  -0.000  -0.000  -0.136  -0.000   0.000   0.000  -0.000   0.000   0.000   0.000   0.000   0.217  -0.000
 -0.000   0.000   0.000  -0.000   0.007  -0.000   0.000   0.000   0.000   0.023   0.000   0.000  -0.032   0.000  -0.000   0.005
  0.000  -0.000   0.000   0.000   0.000  -0.000   0.000   0.000  -0.000   0.000  -0.000  -0.000   0.000  -0.038  -0.000   0.000
  0.007   0.000  -0.000  -0.000   0.000   0.023  -0.000  -0.000   0.000   0.000  -0.000  -0.000  -0.000   0.000  -0.032   0.000


------------------------ aborting loop because EDIFF is reached ----------------------------------------


    CHARGE:  cpu time    0.0350: real time    0.0354
    FORLOC:  cpu time    0.0030: real time    0.0029
    FORNL :  cpu time    0.1130: real time    0.1125
    STRESS:  cpu time    0.3240: real time    0.3240
    FORCOR:  cpu time    0.0290: real time    0.0289
    FORHAR:  cpu time    0.0060: real time    0.0063
    MIXING:  cpu time    0.0010: real time    0.0012
    OFIELD:  cpu time    0.0000: real time    0.0000

  DFT-D2 method for vdW energy calculation
  -------------------------------------------------------------------

  Parameters of vdW forcefield:
         C6(Jnm^6/mol)     R0(A)
   -----------------------------
   Mo      24.670          1.639
   S        5.570          1.683

  IVDW =   1
  VDW_RADIUS =    50.000 A
  VDW_S6 =     0.750
  VDW_SR =     1.000
  VDW_D =    20.000
  LVDW_EWALD = F

  Number of pair interactions contributing to vdW energy:   84128
  Edisp (eV):   -1.33129
    FORVDW:  cpu time    0.0200: real time    0.0243

  FORCE on cell =-STRESS in cart. coord.  units (eV):
  Direction    XX          YY          ZZ          XY          YZ          ZX
  --------------------------------------------------------------------------------------
  Alpha Z    90.42578    90.42578    90.42578
  Ewald     -12.90873   -12.90785 -1121.07429     0.00038     0.00000     0.00025
  Hartree   466.58917   466.58919  -390.20986     0.00003    -0.00000    -0.00001
  E(xc)    -140.60533  -140.60534  -141.79637    -0.00001    -0.00000    -0.00000
  Local   -1080.52963 -1080.53029   872.55784    -0.00042    -0.00000    -0.00011
  n-local   254.32805   251.57315   263.35979    -0.51006    -0.00013     0.00031
  augment   -51.13324   -51.13309   -53.33623     0.00014     0.00000    -0.00001
  Kinetic   471.82856   477.42009   479.58388   -14.80380    -0.00039    -0.00007
  Fock        0.00000     0.00000     0.00000     0.00000     0.00000     0.00000
  vdW         0.17103     0.17103    -0.86546     0.00000     0.00000    -0.00000
  -------------------------------------------------------------------------------------
  Total      -0.41584    -0.41584    -1.35493    -0.00000     0.00000     0.00000
  in kB      -5.08002    -5.08002   -16.55224    -0.00000     0.00000     0.00000
  external pressure =       -8.90 kB  Pullay stress =        0.00 kB


 VOLUME and BASIS-vectors are now :
 -----------------------------------------------------------------------------
  energy-cutoff  :      450.00
  volume of cell :      131.15
      direct lattice vectors                 reciprocal lattice vectors
     3.190315730  0.000000000  0.000000000     0.313448600  0.180969634  0.000000000
    -1.595157865  2.762894468  0.000000000     0.000000000  0.361939267  0.000000000
     0.000000000  0.000000000 14.879004300     0.000000000  0.000000000  0.067208798

  length of vectors
     3.190315730  3.190315730 14.879004300     0.361939267  0.361939267  0.067208798


 FORCES acting on ions
    electron-ion (+dipol)            ewald-force                    non-local-force                 convergence-correction
 -----------------------------------------------------------------------------------------------
   0.473E-04 -.345E-04 -.957E-05   0.928E-04 -.107E-03 0.288E-09   0.468E-16 0.694E-17 -.212E-20   0.470E-08 -.565E-08 -.214E-09
   0.659E-04 -.309E-04 -.957E-05   -.928E-04 0.107E-03 -.288E-09   -.347E-16 0.000E+00 -.466E-20   0.312E-08 0.113E-08 -.215E-09
   0.525E-03 -.305E-03 -.242E+03   0.865E-04 -.537E-04 0.247E+03   -.737E-17 0.147E-16 -.480E+01   0.934E-08 -.575E-08 0.551E-02
   -.117E-02 0.679E-03 0.242E+03   -.865E-04 0.537E-04 -.247E+03   0.234E-16 -.147E-16 0.480E+01   -.240E-07 0.142E-07 -.551E-02
   0.523E-03 0.689E-03 -.242E+03   -.638E-05 0.537E-04 0.247E+03   0.954E-17 -.867E-18 -.480E+01   0.112E-07 0.130E-07 0.551E-02
   -.121E-02 -.292E-03 0.242E+03   0.638E-05 -.537E-04 -.247E+03   0.477E-17 0.867E-18 0.480E+01   -.216E-07 -.698E-08 -.551E-02
 -----------------------------------------------------------------------------------------------
   -.122E-02 0.706E-03 -.106E-04   -.561E-14 0.109E-13 0.284E-13   0.425E-16 0.694E-17 0.000E+00   -.172E-07 0.993E-08 -.617E-09
 
 
 POSITION                                       TOTAL-FORCE (eV/Angst)
 -----------------------------------------------------------------------------------
     -0.00000      1.84193      3.71975        -0.000000     -0.000000      0.000000
      1.59516      0.92096     11.15925        -0.000000     -0.000000      0.000000
     -0.00000      1.84193     12.72414        -0.000000      0.000000     -0.085310
      1.59516      0.92096      2.15487         0.000000     -0.000000      0.085310
      1.59516      0.92096      5.28464         0.000000     -0.000000     -0.085310
      0.00000      1.84193      9.59437        -0.000000      0.000000      0.085310
 -----------------------------------------------------------------------------------
    total drift:                               -0.001223      0.000706     -0.000011


--------------------------------------------------------------------------------------------------------



  FREE ENERGIE OF THE ION-ELECTRON SYSTEM (eV)
  ---------------------------------------------------
  free  energy   TOTEN  =       -44.93661637 eV

  energy  without entropy=      -44.93661637  energy(sigma->0) =      -44.93661637
 


--------------------------------------------------------------------------------------------------------


    POTLOK:  cpu time    0.0310: real time    0.0302


--------------------------------------------------------------------------------------------------------


     LOOP+:  cpu time    8.5137: real time    8.6265
    4ORBIT:  cpu time    0.0000: real time    0.0000
 BZINTS: Fermi energy:  3.302724; 36.000000 electrons
         Band energy: -67.725824;  BLOECHL correction:  0.000000

 total amount of memory used by VASP MPI-rank0    49333. kBytes
=======================================================================

   base      :      30000. kBytes
   nonl-proj :       8467. kBytes
   fftplans  :       2162. kBytes
   grid      :       3449. kBytes
   one-center:         46. kBytes
   wavefun   :       5209. kBytes
 
  
  
 General timing and accounting informations for this job:
 ========================================================
  
                  Total CPU time used (sec):        9.378
                            User time (sec):        9.275
                          System time (sec):        0.103
                         Elapsed time (sec):        9.964
  
                   Maximum memory used (kb):       41628.
                   Average memory used (kb):           0.
  
                          Minor page faults:        10684
                          Major page faults:          142
                 Voluntary context switches:         2478
