perl: warning: Setting locale failed.
perl: warning: Please check that your locale settings:
	LANGUAGE = (unset),
	LC_ALL = (unset),
	LC_CTYPE = "UTF-8",
	LANG = "en_US.iso885915"
    are supported and installed on your system.
perl: warning: Falling back to the standard locale ("C").
Starting job 28526449 ("jobname") on c16-5 at Fri Nov 8 00:00:08 CET 2019
 running on    4 total cores
 distrk:  each k-point on    4 cores,    1 groups
 distr:  one band on    2 cores,    2 groups
 using from now: INCAR     
 vasp.5.4.4.18Apr17-6-g9f103f2a35 (build Jun 30 2017 11:15:00) complex          
  
 POSCAR found type information on POSCAR  Mo S 
 POSCAR found :  2 types and       6 ions
 scaLAPACK will be used
 LDA part: xc-table for Pade appr. of Perdew
 POSCAR, INCAR and KPOINTS ok, starting setup
 FFT: planning ...
 WAVECAR not read
 WARNING: random wavefunctions but no delay for mixing, default for NELMDL
 entering main loop
       N       E                     dE             d eps       ncg     rms          rms(c)
DAV:   1     0.204206195832E+03    0.20421E+03   -0.14902E+04   880   0.127E+03
DAV:   2    -0.287373829257E+02   -0.23294E+03   -0.22705E+03  1198   0.265E+02
DAV:   3    -0.462969691340E+02   -0.17560E+02   -0.17480E+02  1174   0.748E+01
DAV:   4    -0.468050746851E+02   -0.50811E+00   -0.50684E+00  1178   0.137E+01
DAV:   5    -0.468203742522E+02   -0.15300E-01   -0.15294E-01  1194   0.234E+00    0.973E+00
RMM:   6    -0.444377009924E+02    0.23827E+01   -0.24322E+01   986   0.195E+01    0.338E+00
RMM:   7    -0.436948850282E+02    0.74282E+00   -0.19827E+00   968   0.563E+00    0.179E+00
RMM:   8    -0.436312680617E+02    0.63617E-01   -0.89310E-01  1009   0.334E+00    0.833E-01
RMM:   9    -0.436199440920E+02    0.11324E-01   -0.28033E-01  1037   0.221E+00    0.552E-01
RMM:  10    -0.436051873336E+02    0.14757E-01   -0.62110E-02  1051   0.108E+00    0.804E-02
RMM:  11    -0.436051935778E+02   -0.62442E-05   -0.28139E-03  1105   0.225E-01    0.300E-02
RMM:  12    -0.436053350479E+02   -0.14147E-03   -0.49869E-04  1117   0.107E-01    0.202E-02
RMM:  13    -0.436053411615E+02   -0.61136E-05   -0.30092E-04  1145   0.705E-02    0.176E-02
RMM:  14    -0.436053289438E+02    0.12218E-04   -0.57021E-05   846   0.343E-02    0.266E-03
RMM:  15    -0.436053293490E+02   -0.40523E-06   -0.95184E-06   684   0.138E-02
 Error reading item 'IVDW' from file INCAR
   1 F= -.43605329E+02 E0= -.43605329E+02  d E =0.000000E+00

Currently Loaded Modulefiles:
  1) Anaconda3/5.1.0       3) vesta/3.3.8           5) intel/2016.1
  2) gnuplot/5.0.4         4) imagemagick/6.7.9-0   6) vasp/5.4.1.Feb16

Job script resource usage:
       JobID  MaxVMSize     MaxRSS 
------------ ---------- ---------- 
28526449.ba+    216888K      2353K 

Job step resource usage:
       JobID    JobName  AllocCPUS  MaxVMSize     MaxRSS    Elapsed ExitCode 
------------ ---------- ---------- ---------- ---------- ---------- -------- 
28526449        jobname          4                         00:00:13      0:0 
28526449.0    pmi_proxy          1    279832K       520K   00:00:11      0:0 

Job 28526449 ("jobname") completed on c16-5 at Fri Nov 8 00:00:19 CET 2019
