unknown system                          
   1.00000000000000     
     3.190316    0.000000    0.000000
    -1.595158    2.762894    0.000000
     0.000000    0.000000   14.879004
   Mo   S 
     2     4
Direct
  0.333333  0.666667  0.250000
  0.666667  0.333333  0.750000
  0.333333  0.666667  0.855174
  0.666667  0.333333  0.144826
  0.666666  0.333333  0.355174
  0.333334  0.666667  0.644826
 
   36   36  160
 0.39563     0.39869     0.40790     0.42328     0.44483     0.47241     0.50569     0.54408     0.58671     0.63244    
 0.67987     0.72742     0.77340     0.81608     0.85379     0.88502     0.90840     0.92289     0.92779     0.92287    
 0.90836     0.88495     0.85371     0.81598     0.77330     0.72733     0.67978     0.63236     0.58664     0.54402    
 0.50564     0.47237     0.44480     0.42326     0.40788     0.39868     0.39868     0.39869     0.40482     0.41712    
 0.43560     0.46020     0.49068     0.52661     0.56726     0.61162     0.65844     0.70621     0.75328     0.79794    
 0.83848     0.87327     0.90086     0.92000     0.92980     0.92978     0.91995     0.90079     0.87320     0.83840    
 0.79786     0.75320     0.70612     0.65835     0.61154     0.56718     0.52655     0.49064     0.46016     0.43558    
 0.41710     0.40481     0.40788     0.40482     0.40789     0.41712     0.43253     0.45409     0.48166     0.51493    
 0.55332     0.59600     0.64186     0.68952     0.73740     0.78381     0.82699     0.86524     0.89696     0.92076    
 0.93552     0.94052     0.93550     0.92071     0.89690     0.86516     0.82691     0.78372     0.73732     0.68943    
 0.64177     0.59592     0.55325     0.51487     0.48162     0.45406     0.43250     0.41711     0.42326     0.41711    
 0.41711     0.42327     0.43560     0.45409     0.47865     0.50908     0.54494     0.58558     0.63006     0.67717    
 0.72546     0.77324     0.81878     0.86027     0.89602     0.92445     0.94422     0.95437     0.95436     0.94420    
 0.92441     0.89596     0.86019     0.81868     0.77315     0.72536     0.67709     0.62999     0.58551     0.54488    
 0.50903     0.47862     0.45406     0.43558     0.44480     0.43558     0.43251     0.43559     0.44481     0.46019    
 0.48166     0.50908     0.54215     0.58037     0.62300     0.66903     0.71714     0.76579     0.81322     0.85761    
 0.89713     0.93004     0.95481     0.97021     0.97543     0.97021     0.95480     0.93000     0.89706     0.85753    
 0.81312     0.76569     0.71706     0.66896     0.62294     0.58031     0.54210     0.50903     0.48162     0.46016    
 0.47237     0.46017     0.45407     0.45407     0.46018     0.47239     0.49067     0.51492     0.54494     0.58037    
 0.62066     0.66498     0.71225     0.76106     0.80973     0.85645     0.89929     0.93639     0.96601     0.98666    
 0.99728     0.99728     0.98666     0.96598     0.93635     0.89923     0.85637     0.80965     0.76098     0.71219    
 0.66493     0.62060     0.58031     0.54489     0.51488     0.49063     0.50563     0.49064     0.48164     0.47863    
 0.48164     0.49066     0.50566     0.52658     0.55329     0.58557     0.62300     0.66499     0.71064     0.75877    
 0.80784     0.85610     0.90159     0.94235     0.97647      1.0022      1.0183      1.0237      1.0183      1.0022    
 0.97643     0.94231     0.90155     0.85604     0.80777     0.75870     0.71058     0.66492     0.62294     0.58552    
 0.55326     0.52655     0.54401     0.52655     0.51489     0.50905     0.50905     0.51490     0.52658     0.54404    
 0.56721     0.59596     0.63004     0.66902     0.71225     0.75877     0.80726     0.85606     0.90330     0.94694    
 0.98495      1.0154      1.0367      1.0477      1.0477      1.0367      1.0154     0.98492     0.94691     0.90326    
 0.85601     0.80719     0.75870     0.71219     0.66895     0.62998     0.59593     0.56719     0.58664     0.56719    
 0.55327     0.54491     0.54212     0.54491     0.55329     0.56723     0.58667     0.61157     0.64181     0.67713    
 0.71711     0.76103     0.80784     0.85607     0.90393     0.94943     0.99047      1.0250      1.0512      1.0675    
  1.0731      1.0675      1.0512      1.0250     0.99045     0.94940     0.90388     0.85600     0.80778     0.76099    
 0.71706     0.67708     0.64177     0.61154     0.63237     0.61154     0.59593     0.58554     0.58034     0.58034    
 0.58555     0.59597     0.61159     0.63240     0.65839     0.68947     0.72540     0.76573     0.80969     0.85609    
 0.90330     0.94943     0.99239      1.0300      1.0604      1.0816      1.0926      1.0926      1.0816      1.0604    
  1.0300     0.99238     0.94940     0.90325     0.85603     0.80966     0.76570     0.72536     0.68942     0.65835    
 0.67979     0.65836     0.64178     0.63001     0.62298     0.62063     0.62297     0.63003     0.64183     0.65840    
 0.67983     0.70617     0.73736     0.77318     0.81315     0.85640     0.90157     0.94693     0.99047      1.0300    
  1.0635      1.0890      1.1049      1.1104      1.1049      1.0890      1.0635      1.0300     0.99046     0.94690    
 0.90153     0.85637     0.81314     0.77315     0.73730     0.70612     0.72734     0.70613     0.68943     0.67710    
 0.66899     0.66497     0.66496     0.66900     0.67714     0.68948     0.70617     0.72738     0.75325     0.78376    
 0.81871     0.85754     0.89924     0.94232     0.98493      1.0250      1.0604      1.0890      1.1091      1.1195    
  1.1196      1.1091      1.0890      1.0604      1.0250     0.98493     0.94230     0.89922     0.85754     0.81869    
 0.78371     0.75319     0.77330     0.75320     0.73732     0.72537     0.71709     0.71223     0.71063     0.71223    
 0.71712     0.72543     0.73736     0.75324     0.77335     0.79791     0.82694     0.86021     0.89707     0.93634    
 0.97642      1.0154      1.0512      1.0817      1.1049      1.1196      1.1246      1.1196      1.1049      1.0816    
  1.0512      1.0154     0.97644     0.93633     0.89706     0.86021     0.82691     0.79784     0.81597     0.79786    
 0.78373     0.77315     0.76571     0.76102     0.75875     0.75875     0.76104     0.76578     0.77322     0.78377    
 0.79790     0.81602     0.83843     0.86518     0.89596     0.92999     0.96596      1.0022      1.0367      1.0675    
  1.0926      1.1104      1.1196      1.1196      1.1104      1.0926      1.0675      1.0367      1.0022     0.96597    
 0.92999     0.89597     0.86517     0.83839     0.85370     0.83840     0.82692     0.81870     0.81314     0.80968    
 0.80782     0.80724     0.80783     0.80972     0.81322     0.81877     0.82697     0.83845     0.85375     0.87321    
 0.89689     0.92439     0.95477     0.98663      1.0182      1.0477      1.0731      1.0926      1.1049      1.1092    
  1.1049      1.0926      1.0731      1.0477      1.0183     0.98665     0.95478     0.92441     0.89691     0.87320    
 0.88494     0.87319     0.86517     0.86022     0.85754     0.85639     0.85608     0.85605     0.85605     0.85609    
 0.85645     0.85762     0.86028     0.86523     0.87326     0.88498     0.90079     0.92069     0.94417     0.97017    
 0.99725      1.0237      1.0477      1.0675      1.0816      1.0890      1.0890      1.0816      1.0675      1.0477    
  1.0237     0.99729     0.97019     0.94419     0.92073     0.90080     0.90836     0.90079     0.89691     0.89598    
 0.89708     0.89925     0.90158     0.90331     0.90393     0.90330     0.90160     0.89930     0.89714     0.89604    
 0.89697     0.90085     0.90838     0.91994     0.93546     0.95431     0.97538     0.99724      1.0183      1.0367    
  1.0512      1.0604      1.0635      1.0604      1.0512      1.0367      1.0183     0.99730     0.97543     0.95435    
 0.93550     0.91997     0.92288     0.91996     0.92072     0.92442     0.93002     0.93636     0.94234     0.94696    
 0.94946     0.94946     0.94696     0.94238     0.93641     0.93006     0.92447     0.92079     0.92001     0.92289    
 0.92977     0.94047     0.95431     0.97015     0.98662      1.0022      1.0154      1.0250      1.0300      1.0300    
  1.0250      1.0154      1.0022     0.98667     0.97022     0.95436     0.94051     0.92979     0.92781     0.92979    
 0.93549     0.94420     0.95481     0.96600     0.97646     0.98497     0.99051     0.99243     0.99052     0.98499    
 0.97651     0.96605     0.95485     0.94426     0.93555     0.92982     0.92780     0.92978     0.93547     0.94415    
 0.95474     0.96595     0.97643     0.98494     0.99047     0.99240     0.99049     0.98495     0.97645     0.96600    
 0.95482     0.94422     0.93551     0.92980     0.92290     0.92980     0.94051     0.95436     0.97022     0.98669    
  1.0023      1.0155      1.0251      1.0301      1.0301      1.0251      1.0155      1.0023     0.98673     0.97026    
 0.95441     0.94056     0.92981     0.92289     0.91997     0.92071     0.92438     0.92997     0.93633     0.94232    
 0.94692     0.94943     0.94945     0.94695     0.94234     0.93638     0.93004     0.92445     0.92075     0.91999    
 0.90840     0.92000     0.93552     0.95436     0.97545     0.99733      1.0183      1.0368      1.0512      1.0604    
  1.0636      1.0604      1.0512      1.0368      1.0184     0.99736     0.97550     0.95442     0.93554     0.91999    
 0.90838     0.90082     0.89691     0.89596     0.89707     0.89924     0.90156     0.90328     0.90393     0.90332    
 0.90160     0.89928     0.89713     0.89603     0.89696     0.90084     0.88501     0.90085     0.92076     0.94422    
 0.97022     0.99733      1.0238      1.0478      1.0676      1.0817      1.0891      1.0890      1.0817      1.0676    
  1.0478      1.0238     0.99736     0.97028     0.94427     0.92077     0.90083     0.88498     0.87322     0.86518    
 0.86022     0.85756     0.85641     0.85607     0.85605     0.85607     0.85611     0.85644     0.85760     0.86029    
 0.86525     0.87326     0.85378     0.87327     0.89697     0.92446     0.95482     0.98670      1.0183      1.0478    
  1.0731      1.0927      1.1050      1.1092      1.1050      1.0927      1.0731      1.0478      1.0183     0.98674    
 0.95488     0.92448     0.89696     0.87324     0.85375     0.83842     0.82692     0.81872     0.81318     0.80970    
 0.80782     0.80725     0.80786     0.80973     0.81321     0.81878     0.82700     0.83848     0.81606     0.83848    
 0.86525     0.89604     0.93005     0.96603      1.0023      1.0368      1.0676      1.0927      1.1104      1.1196    
  1.1196      1.1104      1.0927      1.0676      1.0368      1.0023     0.96606     0.93008     0.89604     0.86523    
 0.83846     0.81602     0.79788     0.78374     0.77319     0.76575     0.76103     0.75876     0.75878     0.76107    
 0.76578     0.77323     0.78382     0.79795     0.77340     0.79794     0.82700     0.86030     0.89714     0.93640    
 0.97650      1.0155      1.0512      1.0817      1.1050      1.1196      1.1246      1.1196      1.1050      1.0817    
  1.0512      1.0155     0.97650     0.93642     0.89714     0.86027     0.82698     0.79793     0.77335     0.75322    
 0.73734     0.72541     0.71711     0.71224     0.71065     0.71227     0.71714     0.72544     0.73740     0.75330    
 0.72743     0.75329     0.78381     0.81879     0.85763     0.89931     0.94238     0.98501      1.0251      1.0604    
  1.0891      1.1092      1.1196      1.1196      1.1092      1.0891      1.0604      1.0251     0.98498     0.94238    
 0.89930     0.85759     0.81876     0.78380     0.75326     0.72738     0.70616     0.68947     0.67714     0.66900    
 0.66498     0.66500     0.66904     0.67716     0.68951     0.70622     0.67989     0.70622     0.73741     0.77325    
 0.81324     0.85647     0.90162     0.94699     0.99054      1.0301      1.0636      1.0891      1.1050      1.1104    
  1.1050      1.0891      1.0636      1.0301     0.99051     0.94697     0.90161     0.85644     0.81319     0.77321    
 0.73738     0.70618     0.67983     0.65840     0.64182     0.63003     0.62298     0.62065     0.62301     0.63006    
 0.64184     0.65844     0.63245     0.65845     0.68952     0.72546     0.76581     0.80977     0.85614     0.90335    
 0.94949     0.99245      1.0301      1.0604      1.0817      1.0927      1.0927      1.0817      1.0604      1.0301    
 0.99243     0.94946     0.90332     0.85611     0.80972     0.76575     0.72542     0.68948     0.65839     0.63240    
 0.61159     0.59597     0.58556     0.58036     0.58037     0.58558     0.59599     0.61161     0.58671     0.61163    
 0.64186     0.67718     0.71717     0.76110     0.80789     0.85611     0.90398     0.94949     0.99052      1.0250    
  1.0512      1.0676      1.0732      1.0676      1.0512      1.0251     0.99050     0.94944     0.90393     0.85607    
 0.80784     0.76104     0.71712     0.67714     0.64181     0.61157     0.58667     0.56723     0.55330     0.54493    
 0.54215     0.54495     0.55332     0.56725     0.54407     0.56726     0.59601     0.63008     0.66906     0.71230    
 0.75882     0.80730     0.85612     0.90336     0.94699     0.98499      1.0155      1.0368      1.0478      1.0478    
  1.0368      1.0155     0.98498     0.94694     0.90329     0.85605     0.80724     0.75876     0.71224     0.66902    
 0.63004     0.59596     0.56721     0.54404     0.52659     0.51491     0.50907     0.50908     0.51493     0.52660    
 0.50568     0.52661     0.55333     0.58560     0.62303     0.66503     0.71069     0.75881     0.80789     0.85614    
 0.90164     0.94239     0.97650      1.0023      1.0183      1.0238      1.0183      1.0023     0.97648     0.94235    
 0.90157     0.85607     0.80781     0.75874     0.71062     0.66497     0.62299     0.58556     0.55329     0.52658    
 0.50566     0.49066     0.48165     0.47865     0.48167     0.49068     0.47241     0.49069     0.51494     0.54497    
 0.58040     0.62069     0.66503     0.71229     0.76109     0.80976     0.85647     0.89932     0.93642     0.96604    
 0.98670     0.99732     0.99731     0.98668     0.96601     0.93637     0.89926     0.85640     0.80968     0.76101    
 0.71221     0.66495     0.62063     0.58035     0.54492     0.51490     0.49066     0.47239     0.46018     0.45408    
 0.45409     0.46020     0.44483     0.46020     0.48168     0.50910     0.54217     0.58040     0.62304     0.66906    
 0.71717     0.76580     0.81323     0.85762     0.89714     0.93006     0.95484     0.97024     0.97545     0.97021    
 0.95480     0.93001     0.89708     0.85755     0.81316     0.76573     0.71709     0.66898     0.62296     0.58034    
 0.54212     0.50906     0.48165     0.46018     0.44481     0.43559     0.43253     0.43560     0.42328     0.43561    
 0.45410     0.47867     0.50910     0.54496     0.58560     0.63008     0.67720     0.72547     0.77325     0.81878    
 0.86028     0.89603     0.92446     0.94423     0.95438     0.95436     0.94420     0.92441     0.89597     0.86021    
 0.81870     0.77317     0.72539     0.67711     0.63001     0.58553     0.54490     0.50905     0.47863     0.45407    
 0.43559     0.42327     0.41712     0.41712     0.40790     0.41713     0.43254     0.45410     0.48168     0.51494    
 0.55333     0.59601     0.64187     0.68953     0.73742     0.78383     0.82700     0.86524     0.89695     0.92075    
 0.93552     0.94052     0.93550     0.92073     0.89691     0.86516     0.82690     0.78372     0.73732     0.68944    
 0.64179     0.59594     0.55327     0.51489     0.48163     0.45407     0.43251     0.41711     0.40789     0.40482    
 0.39869     0.40483     0.41713     0.43561     0.46021     0.49069     0.52661     0.56726     0.61162     0.65844    
 0.70622     0.75330     0.79796     0.83849     0.87327     0.90084     0.91998     0.92979     0.92979     0.91996    
 0.90080     0.87320     0.83840     0.79785     0.75319     0.70612     0.65836     0.61155     0.56720     0.52656    
 0.49064     0.46017     0.43558     0.41711     0.40482     0.39869     0.40565     0.40891     0.41870     0.43502    
 0.45780     0.48686     0.52184     0.56215     0.60692     0.65503     0.70504     0.75534     0.80412     0.84955    
 0.88982     0.92322     0.94829     0.96384     0.96910     0.96381     0.94825     0.92316     0.88974     0.84946    
 0.80403     0.75524     0.70495     0.65494     0.60685     0.56208     0.52179     0.48682     0.45777     0.43500    
 0.41869     0.40890     0.40890     0.40891     0.41593     0.42994     0.45087     0.47854     0.51266     0.55271    
 0.59794     0.64734     0.69959     0.75309     0.80603     0.85648     0.90246     0.94205     0.97352     0.99540    
  1.0066      1.0066     0.99536     0.97346     0.94198     0.90238     0.85640     0.80595     0.75300     0.69949    
 0.64725     0.59787     0.55265     0.51261     0.47851     0.45084     0.42992     0.41592     0.41869     0.41494    
 0.41870     0.42993     0.44857     0.47444     0.50725     0.54659     0.59180     0.64201     0.69603     0.75235    
 0.80919     0.86454     0.91630     0.96234      1.0007      1.0295      1.0474      1.0534      1.0473      1.0294    
  1.0006     0.96226     0.91622     0.86446     0.80910     0.75226     0.69594     0.64193     0.59174     0.54654    
 0.50721     0.47441     0.44855     0.42992     0.43500     0.42704     0.42704     0.43501     0.45086     0.47444    
 0.50547     0.54359     0.58825     0.63869     0.69389     0.75249     0.81276     0.87271     0.93010     0.98265    
  1.0281      1.0643      1.0895      1.1025      1.1025      1.0895      1.0643      1.0280     0.98257     0.93001    
 0.87261     0.81267     0.75241     0.69382     0.63863     0.58819     0.54354     0.50543     0.47440     0.45084    
 0.45777     0.44523     0.44103     0.44523     0.45778     0.47853     0.50725     0.54359     0.58709     0.63712    
 0.69280     0.75294     0.81597     0.87994     0.94257      1.0014      1.0540      1.0979      1.1310      1.1516    
  1.1586      1.1516      1.1310      1.0978      1.0539      1.0013     0.94247     0.87984     0.81589     0.75288    
 0.69274     0.63706     0.58704     0.54355     0.50721     0.47851     0.48681     0.46945     0.46071     0.46071    
 0.46945     0.48683     0.51264     0.54658     0.58824     0.63712     0.69247     0.75329     0.81818     0.88532    
 0.95248      1.0171      1.0765      1.1281      1.1693      1.1981      1.2129      1.2129      1.1981      1.1693    
  1.1281      1.0765      1.0170     0.95239     0.88524     0.81812     0.75323     0.69241     0.63706     0.58820    
 0.54654     0.51261     0.52178     0.49948     0.48600     0.48148     0.48600     0.49950     0.52181     0.55268    
 0.59178     0.63868     0.69280     0.75329     0.81897     0.88820     0.95885      1.0284      1.0941      1.1529    
  1.2023      1.2395      1.2627      1.2706      1.2627      1.2395      1.2022      1.1529      1.0940      1.0283    
 0.95878     0.88813     0.81891     0.75323     0.69274     0.63863     0.59174     0.55265     0.56208     0.53491    
 0.51663     0.50744     0.50744     0.51664     0.53494     0.56211     0.59790     0.64197     0.69387     0.75293    
 0.81818     0.88820     0.96106      1.0343      1.1052      1.1706      1.2275      1.2732      1.3051      1.3215    
  1.3215      1.3051      1.2731      1.2275      1.1706      1.1051      1.0343     0.96099     0.88814     0.81812    
 0.75287     0.69382     0.64194     0.59787     0.60685     0.57505     0.55213     0.53829     0.53365     0.53829    
 0.55215     0.57509     0.60688     0.64729     0.69597     0.75245     0.81594     0.88530     0.95885      1.0343    
  1.1090      1.1798      1.2435      1.2970      1.3374      1.3627      1.3713      1.3627      1.3374      1.2970    
  1.2435      1.1798      1.1089      1.0343     0.95879     0.88525     0.81589     0.75240     0.69594     0.64726    
 0.65495     0.61893     0.59170     0.57344     0.56426     0.56426     0.57344     0.59174     0.61898     0.65499    
 0.69954     0.75229     0.81270     0.87987     0.95243      1.0284      1.1052      1.1798      1.2489      1.3093    
  1.3578      1.3917      1.4092      1.4092      1.3917      1.3578      1.3093      1.2489      1.1798      1.1051    
  1.0283     0.95240     0.87985     0.81266     0.75225     0.69950     0.70497     0.66533     0.63431     0.61206    
 0.59866     0.59418     0.59865     0.61208     0.63436     0.66538     0.70500     0.75304     0.80914     0.87264    
 0.94249      1.0171      1.0940      1.1706      1.2435      1.3093      1.3647      1.4067      1.4330      1.4419    
  1.4330      1.4067      1.3647      1.3093      1.2435      1.1706      1.0940      1.0170     0.94248     0.87261    
 0.80908     0.75300     0.75525     0.71277     0.67867     0.65304     0.63594     0.62738     0.62737     0.63595    
 0.65308     0.67872     0.71280     0.75529     0.80599     0.86450     0.93003      1.0013      1.0765      1.1529    
  1.2275      1.2970      1.3578      1.4068      1.4411      1.4588      1.4588      1.4411      1.4067      1.3578    
  1.2970      1.2275      1.1529      1.0765      1.0013     0.93002     0.86445     0.80593     0.80403     0.75961    
 0.72328     0.69508     0.67499     0.66297     0.65896     0.66297     0.67503     0.69514     0.72332     0.75963    
 0.80407     0.85644     0.91625     0.98258      1.0539      1.1281      1.2022      1.2731      1.3374      1.3918    
  1.4330      1.4588      1.4676      1.4588      1.4330      1.3917      1.3374      1.2732      1.2022      1.1281    
  1.0539     0.98258     0.91622     0.85638     0.84945     0.80412     0.76655     0.73671     0.71450     0.69981    
 0.69249     0.69248     0.69983     0.71456     0.73677     0.76658     0.80415     0.84950     0.90240     0.96227    
  1.0280      1.0978      1.1693      1.2394      1.3050      1.3627      1.4092      1.4419      1.4588      1.4588    
  1.4419      1.4092      1.3627      1.3051      1.2395      1.1693      1.0978      1.0280     0.96228     0.90236    
 0.88972     0.84459     0.80683     0.77637     0.75304     0.73661     0.72685     0.72361     0.72685     0.73665    
 0.75311     0.77643     0.80687     0.84463     0.88976     0.94198      1.0006      1.0642      1.1309      1.1981    
  1.2627      1.3215      1.3713      1.4092      1.4330      1.4411      1.4330      1.4092      1.3713      1.3215    
  1.2627      1.1981      1.1309      1.0643      1.0006     0.94198     0.92315     0.87938     0.84252     0.81251    
 0.78910     0.77195     0.76075     0.75522     0.75521     0.76076     0.77201     0.78917     0.81257     0.84257    
 0.87944     0.92318     0.97345      1.0294      1.0895      1.1515      1.2129      1.2706      1.3215      1.3627    
  1.3917      1.4067      1.4067      1.3917      1.3627      1.3215      1.2706      1.2129      1.1516      1.0895    
  1.0294     0.97347     0.94825     0.90701     0.87215     0.84364     0.82120     0.80440     0.79281     0.78603    
 0.78379     0.78602     0.79283     0.80446     0.82126     0.84370     0.87221     0.90707     0.94826     0.99534    
  1.0473      1.1024      1.1585      1.2129      1.2627      1.3051      1.3374      1.3578      1.3647      1.3578    
  1.3374      1.3051      1.2627      1.2129      1.1586      1.1025      1.0473     0.99538     0.96382     0.92622    
 0.89439     0.86840     0.84795     0.83253     0.82161     0.81466     0.81129     0.81128     0.81466     0.82164    
 0.83258     0.84799     0.86845     0.89445     0.92626     0.96382      1.0066      1.0534      1.1024      1.1515    
  1.1981      1.2395      1.2732      1.2970      1.3093      1.3093      1.2970      1.2732      1.2395      1.1981    
  1.1516      1.1025      1.0534      1.0066     0.96911     0.93607     0.90819     0.88563     0.86810     0.85502    
 0.84577     0.83972     0.83632     0.83522     0.83632     0.83974     0.84582     0.85506     0.86813     0.88568    
 0.90825     0.93610     0.96910      1.0066      1.0473      1.0895      1.1309      1.1693      1.2022      1.2275    
  1.2435      1.2489      1.2435      1.2275      1.2022      1.1693      1.1310      1.0895      1.0474      1.0066    
 0.96385     0.93609     0.91289     0.89448     0.88063     0.87074     0.86407     0.85990     0.85754     0.85649    
 0.85648     0.85754     0.85993     0.86411     0.87077     0.88066     0.89453     0.91292     0.93609     0.96382    
 0.99537      1.0294      1.0642      1.0978      1.1281      1.1529      1.1706      1.1798      1.1798      1.1706    
  1.1529      1.1281      1.0979      1.0643      1.0295     0.99539     0.94829     0.92626     0.90822     0.89448    
 0.88488     0.87882     0.87550     0.87407     0.87373     0.87381     0.87387     0.87379     0.87373     0.87410    
 0.87553     0.87885     0.88492     0.89453     0.90824     0.92624     0.94826     0.97348      1.0006      1.0280    
  1.0539      1.0765      1.0940      1.1052      1.1090      1.1052      1.0941      1.0765      1.0540      1.0281    
  1.0007     0.97351     0.92321     0.90707     0.89443     0.88565     0.88063     0.87882     0.87939     0.88139    
 0.88389     0.88607     0.88730     0.88728     0.88604     0.88388     0.88140     0.87941     0.87885     0.88068    
 0.88569     0.89443     0.90704     0.92318     0.94199     0.96228     0.98259      1.0014      1.0171      1.0284    
  1.0343      1.0343      1.0284      1.0171      1.0014     0.98266     0.96235     0.94204     0.88980     0.87946    
 0.87221     0.86844     0.86811     0.87074     0.87551     0.88139     0.88734     0.89241     0.89579     0.89696    
 0.89576     0.89239     0.88734     0.88139     0.87552     0.87078     0.86816     0.86846     0.87219     0.87943    
 0.88976     0.90239     0.91623     0.93005     0.94252     0.95244     0.95883     0.96105     0.95886     0.95247    
 0.94255     0.93011     0.91631     0.90246     0.84954     0.84467     0.84260     0.84371     0.84799     0.85505    
 0.86410     0.87408     0.88388     0.89239     0.89868     0.90200     0.90199     0.89866     0.89240     0.88388    
 0.87407     0.86409     0.85507     0.84801     0.84370     0.84257     0.84464     0.84950     0.85641     0.86447    
 0.87265     0.87989     0.88530     0.88819     0.88821     0.88533     0.87992     0.87270     0.86455     0.85649    
 0.80412     0.80420     0.80691     0.81259     0.82127     0.83258     0.84581     0.85993     0.87374     0.88604    
 0.89577     0.90200     0.90413     0.90199     0.89577     0.88606     0.87373     0.85990     0.84580     0.83259    
 0.82126     0.81257     0.80688     0.80418     0.80407     0.80597     0.80912     0.81271     0.81594     0.81817    
 0.81898     0.81820     0.81597     0.81275     0.80919     0.80605     0.75535     0.75969     0.76663     0.77646    
 0.78918     0.80447     0.82165     0.83975     0.85756     0.87381     0.88729     0.89696     0.90199     0.90198    
 0.89695     0.88730     0.87382     0.85754     0.83973     0.82164     0.80445     0.78915     0.77642     0.76661    
 0.75966     0.75529     0.75303     0.75230     0.75245     0.75292     0.75328     0.75330     0.75295     0.75248    
 0.75234     0.75310     0.70506     0.71286     0.72337     0.73681     0.75314     0.77203     0.79286     0.81469    
 0.83634     0.85651     0.87389     0.88731     0.89578     0.89867     0.89576     0.88729     0.87389     0.85649    
 0.83632     0.81467     0.79285     0.77199     0.75308     0.73676     0.72334     0.71282     0.70500     0.69954    
 0.69599     0.69386     0.69278     0.69247     0.69281     0.69390     0.69601     0.69959     0.65504     0.66542    
 0.67876     0.69518     0.71460     0.73669     0.76081     0.78607     0.81132     0.83524     0.85650     0.87381    
 0.88607     0.89241     0.89240     0.88605     0.87381     0.85649     0.83521     0.81128     0.78605     0.76078    
 0.73664     0.71454     0.69513     0.67871     0.66537     0.65499     0.64731     0.64198     0.63867     0.63711    
 0.63712     0.63870     0.64200     0.64733     0.60692     0.61902     0.63440     0.65312     0.67508     0.69989    
 0.72692     0.75528     0.78384     0.81132     0.83633     0.85754     0.87374     0.88390     0.88736     0.88389    
 0.87373     0.85754     0.83630     0.81127     0.78379     0.75523     0.72687     0.69983     0.67503     0.65308    
 0.63434     0.61896     0.60688     0.59791     0.59178     0.58824     0.58709     0.58826     0.59180     0.59793    
 0.56214     0.57512     0.59178     0.61213     0.63601     0.66303     0.69255     0.72367     0.75528     0.78609    
 0.81470     0.83974     0.85991     0.87408     0.88139     0.88139     0.87408     0.85991     0.83972     0.81465    
 0.78601     0.75521     0.72361     0.69249     0.66298     0.63597     0.61208     0.59172     0.57507     0.56211    
 0.55268     0.54657     0.54359     0.54359     0.54659     0.55270     0.52183     0.53497     0.55219     0.57350    
 0.59872     0.62744     0.65902     0.69255     0.72691     0.76082     0.79288     0.82166     0.84580     0.86409    
 0.87550     0.87938     0.87550     0.86408     0.84579     0.82162     0.79281     0.76074     0.72683     0.69247    
 0.65895     0.62739     0.59867     0.57345     0.55214     0.53493     0.52181     0.51264     0.50724     0.50547    
 0.50726     0.51266     0.48686     0.49953     0.51669     0.53834     0.56432     0.59424     0.62744     0.66303    
 0.69988     0.73668     0.77204     0.80448     0.83259     0.85506     0.87074     0.87881     0.87880     0.87072    
 0.85503     0.83255     0.80442     0.77196     0.73661     0.69980     0.66295     0.62737     0.59418     0.56427    