       N       E                     dE             d eps       ncg     rms          rms(c)
DAV:   1     0.204206195832E+03    0.20421E+03   -0.14902E+04   880   0.127E+03
DAV:   2    -0.287373829257E+02   -0.23294E+03   -0.22705E+03  1198   0.265E+02
DAV:   3    -0.462969691340E+02   -0.17560E+02   -0.17480E+02  1174   0.748E+01
DAV:   4    -0.468050746851E+02   -0.50811E+00   -0.50684E+00  1178   0.137E+01
DAV:   5    -0.468203742522E+02   -0.15300E-01   -0.15294E-01  1194   0.234E+00    0.973E+00
RMM:   6    -0.444377009924E+02    0.23827E+01   -0.24322E+01   986   0.195E+01    0.338E+00
RMM:   7    -0.436948850282E+02    0.74282E+00   -0.19827E+00   968   0.563E+00    0.179E+00
RMM:   8    -0.436312680617E+02    0.63617E-01   -0.89310E-01  1009   0.334E+00    0.833E-01
RMM:   9    -0.436199440920E+02    0.11324E-01   -0.28033E-01  1037   0.221E+00    0.552E-01
RMM:  10    -0.436051873336E+02    0.14757E-01   -0.62110E-02  1051   0.108E+00    0.804E-02
RMM:  11    -0.436051935778E+02   -0.62442E-05   -0.28139E-03  1105   0.225E-01    0.300E-02
RMM:  12    -0.436053350479E+02   -0.14147E-03   -0.49869E-04  1117   0.107E-01    0.202E-02
RMM:  13    -0.436053411615E+02   -0.61136E-05   -0.30092E-04  1145   0.705E-02    0.176E-02
RMM:  14    -0.436053289438E+02    0.12218E-04   -0.57021E-05   846   0.343E-02    0.266E-03
RMM:  15    -0.436053293490E+02   -0.40523E-06   -0.95184E-06   684   0.138E-02
   1 F= -.44936616E+02 E0= -.44936616E+02  d E =0.000000E+00
