<?xml version="1.0" encoding="ISO-8859-1"?>
<modeling>
 <generator>
  <i name="program" type="string">vasp </i>
  <i name="version" type="string">5.4.4.18Apr17-6-g9f103f2a35  </i>
  <i name="subversion" type="string">(build Jun 30 2017 11:15:00) complex            parallel </i>
  <i name="platform" type="string">STALLO_VASP_5.4.4 </i>
  <i name="date" type="string">2019 11 08 </i>
  <i name="time" type="string">12:18:47 </i>
 </generator>
 <incar>
  <i type="string" name="PREC">normal    ! low/normal/accurate</i>
  <i type="string" name="ALGO"> Fast      ! Algorithm for electronic re</i>
  <i type="int" name="ISPIN">     1</i>
  <i type="int" name="NELMIN">     4</i>
  <i name="EDIFF">      0.00001000</i>
  <i type="int" name="NSW">     0</i>
  <i name="ENCUT">    450.00000000</i>
  <i type="logical" name="LREAL"> F  </i>
  <i type="int" name="ISMEAR">    -5</i>
  <i name="SIGMA">      0.20000000</i>
  <i type="logical" name="LWAVE"> F  </i>
  <v type="int" name="KPOINT_BSE">    -1     0     0     0</v>
 </incar>
 <structure name="primitive_cell" >
  <crystal>
   <varray name="basis" >
    <v>       3.19031573       0.00000000       0.00000000 </v>
    <v>      -1.59515786       2.76289447       0.00000000 </v>
    <v>       0.00000000       0.00000000      14.87900430 </v>
   </varray>
   <i name="volume">    131.15106795 </i>
   <varray name="rec_basis" >
    <v>       0.31344860       0.18096963       0.00000000 </v>
    <v>       0.00000000       0.36193927       0.00000000 </v>
    <v>       0.00000000       0.00000000       0.06720880 </v>
   </varray>
  </crystal>
  <varray name="positions" >
   <v>       0.33333300      -0.33333300       0.25000000 </v>
   <v>      -0.33333400       0.33333300       0.35517400 </v>
   <v>      -0.33333300       0.33333300       0.14482600 </v>
   <v>       0.33333300      -0.33333300      -0.14482600 </v>
   <v>       0.33333400      -0.33333300      -0.35517400 </v>
   <v>      -0.33333300       0.33333300      -0.25000000 </v>
  </varray>
 </structure>
 <varray name="primitive_index" >
  <v type="int" >        1 </v>
  <v type="int" >        5 </v>
  <v type="int" >        4 </v>
  <v type="int" >        3 </v>
  <v type="int" >        6 </v>
  <v type="int" >        2 </v>
 </varray>
 <kpoints>
  <generation param="Gamma">
   <v type="int" name="divisions">       8        8        2 </v>
   <v name="usershift">      0.00000000       0.00000000       0.00000000 </v>
   <v name="genvec1">      0.12500000       0.00000000       0.00000000 </v>
   <v name="genvec2">      0.00000000       0.12500000       0.00000000 </v>
   <v name="genvec3">      0.00000000       0.00000000       0.50000000 </v>
   <v name="shift">      0.00000000       0.00000000       0.00000000 </v>
  </generation>
  <varray name="kpointlist" >
   <v>       0.00000000       0.00000000       0.00000000 </v>
   <v>       0.12500000      -0.00000000       0.00000000 </v>
   <v>       0.25000000      -0.00000000       0.00000000 </v>
   <v>       0.37500000      -0.00000000       0.00000000 </v>
   <v>       0.50000000      -0.00000000       0.00000000 </v>
   <v>       0.12500000       0.12500000       0.00000000 </v>
   <v>       0.25000000       0.12500000       0.00000000 </v>
   <v>       0.37500000       0.12500000       0.00000000 </v>
   <v>       0.25000000       0.25000000       0.00000000 </v>
   <v>       0.37500000       0.25000000       0.00000000 </v>
   <v>       0.00000000       0.00000000       0.50000000 </v>
   <v>       0.12500000      -0.00000000       0.50000000 </v>
   <v>       0.25000000      -0.00000000       0.50000000 </v>
   <v>       0.37500000      -0.00000000       0.50000000 </v>
   <v>       0.50000000      -0.00000000       0.50000000 </v>
   <v>       0.12500000       0.12500000       0.50000000 </v>
   <v>       0.25000000       0.12500000       0.50000000 </v>
   <v>       0.37500000       0.12500000       0.50000000 </v>
   <v>       0.25000000       0.25000000       0.50000000 </v>
   <v>       0.37500000       0.25000000       0.50000000 </v>
  </varray>
  <varray name="weights" >
   <v>       0.00781250 </v>
   <v>       0.04687500 </v>
   <v>       0.04687500 </v>
   <v>       0.04687500 </v>
   <v>       0.02343750 </v>
   <v>       0.04687500 </v>
   <v>       0.09375000 </v>
   <v>       0.09375000 </v>
   <v>       0.04687500 </v>
   <v>       0.04687500 </v>
   <v>       0.00781250 </v>
   <v>       0.04687500 </v>
   <v>       0.04687500 </v>
   <v>       0.04687500 </v>
   <v>       0.02343750 </v>
   <v>       0.04687500 </v>
   <v>       0.09375000 </v>
   <v>       0.09375000 </v>
   <v>       0.04687500 </v>
   <v>       0.04687500 </v>
  </varray>
  <varray name="tetrahedronlist"  type="int" >
   <v type="int" >        8        2        2        6       12 </v>
   <v type="int" >        8        1        2        2       12 </v>
   <v type="int" >        4        1        2       11       12 </v>
   <v type="int" >        4        2        6       12       16 </v>
   <v type="int" >        8        2       12       12       16 </v>
   <v type="int" >        8        2       11       12       12 </v>
   <v type="int" >        8        3        6        7       16 </v>
   <v type="int" >        8        2        3        6       16 </v>
   <v type="int" >        4        2        3       12       16 </v>
   <v type="int" >        4        3        7       16       17 </v>
   <v type="int" >        8        3       13       16       17 </v>
   <v type="int" >        8        3       12       13       16 </v>
   <v type="int" >        8        4        7        8       17 </v>
   <v type="int" >        8        3        4        7       17 </v>
   <v type="int" >        4        3        4       13       17 </v>
   <v type="int" >        4        4        8       17       18 </v>
   <v type="int" >        8        4       14       17       18 </v>
   <v type="int" >        8        4       13       14       17 </v>
   <v type="int" >        8        5        8        8       18 </v>
   <v type="int" >        8        4        5        8       18 </v>
   <v type="int" >        4        4        5       14       18 </v>
   <v type="int" >        4        5        8       18       18 </v>
   <v type="int" >        4        5       15       18       18 </v>
   <v type="int" >        8        5       14       15       18 </v>
   <v type="int" >        8        4        7        8       18 </v>
   <v type="int" >        4        4        5       15       18 </v>
   <v type="int" >        4        4        7       17       18 </v>
   <v type="int" >        8        4       14       15       18 </v>
   <v type="int" >        8        3        6        7       17 </v>
   <v type="int" >        4        3        4       14       17 </v>
   <v type="int" >        4        3        6       16       17 </v>
   <v type="int" >        8        3       13       14       17 </v>
   <v type="int" >        4        2        2        6       16 </v>
   <v type="int" >        4        2        3       13       16 </v>
   <v type="int" >        4        2        2       12       16 </v>
   <v type="int" >        8        2       12       13       16 </v>
   <v type="int" >        4        1        2       12       12 </v>
   <v type="int" >        4        1       11       12       12 </v>
   <v type="int" >        8        3        6        7       13 </v>
   <v type="int" >        8        2        3        6       13 </v>
   <v type="int" >        4        2        6       12       13 </v>
   <v type="int" >        4        6        7       13       17 </v>
   <v type="int" >        8        6       13       16       17 </v>
   <v type="int" >        8        6       12       13       16 </v>
   <v type="int" >        8        7        7        9       17 </v>
   <v type="int" >        8        6        7        7       17 </v>
   <v type="int" >        4        6        7       16       17 </v>
   <v type="int" >        4        7        9       17       19 </v>
   <v type="int" >        8        7       17       17       19 </v>
   <v type="int" >        8        7       16       17       17 </v>
   <v type="int" >        8        8        9       10       19 </v>
   <v type="int" >        8        7        8        9       19 </v>
   <v type="int" >        4        7        8       17       19 </v>
   <v type="int" >        4        8       10       19       20 </v>
   <v type="int" >        8        8       18       19       20 </v>
   <v type="int" >        8        8       17       18       19 </v>
   <v type="int" >        8        8        9       10       20 </v>
   <v type="int" >        4        8        8       10       20 </v>
   <v type="int" >        4        8        8       18       20 </v>
   <v type="int" >        4        8        9       19       20 </v>
   <v type="int" >        8        8       18       18       20 </v>
   <v type="int" >        4        7        7        9       19 </v>
   <v type="int" >        4        7        8       18       19 </v>
   <v type="int" >        4        7        7       17       19 </v>
   <v type="int" >        8        7       17       18       19 </v>
   <v type="int" >        4        6        7       17       17 </v>
   <v type="int" >        4        3        6       13       17 </v>
   <v type="int" >        4        6       16       17       17 </v>
   <v type="int" >        4        2        6       13       16 </v>
   <v type="int" >        8        4        7        8       14 </v>
   <v type="int" >        8        3        4        7       14 </v>
   <v type="int" >        4        3        7       13       14 </v>
   <v type="int" >        4        7        8       14       18 </v>
   <v type="int" >        8        7       14       17       18 </v>
   <v type="int" >        8        7       13       14       17 </v>
   <v type="int" >        8        8        9       10       18 </v>
   <v type="int" >        8        7        8        9       18 </v>
   <v type="int" >        4        7        9       17       18 </v>
   <v type="int" >        4        9       10       18       20 </v>
   <v type="int" >        8        9       18       19       20 </v>
   <v type="int" >        8        9       17       18       19 </v>
   <v type="int" >        4       10       10       10       20 </v>
   <v type="int" >        8        9       10       10       20 </v>
   <v type="int" >        4        9       10       19       20 </v>
   <v type="int" >        4       10       10       20       20 </v>
   <v type="int" >        4       10       20       20       20 </v>
   <v type="int" >        8       10       19       20       20 </v>
   <v type="int" >        4        9       10       20       20 </v>
   <v type="int" >        4        8        9       18       20 </v>
   <v type="int" >        4        9       19       20       20 </v>
   <v type="int" >        4        7        9       18       19 </v>
   <v type="int" >        4        4        7       14       18 </v>
   <v type="int" >        4        3        7       14       17 </v>
   <v type="int" >        4        5        8        8       15 </v>
   <v type="int" >        8        4        5        8       15 </v>
   <v type="int" >        4        4        8       14       15 </v>
   <v type="int" >        4        8        8       15       18 </v>
   <v type="int" >        8        8       15       18       18 </v>
   <v type="int" >        8        8       14       15       18 </v>
   <v type="int" >        8        8        8       10       18 </v>
   <v type="int" >        4        8       10       18       18 </v>
   <v type="int" >        4        9       10       18       19 </v>
   <v type="int" >        8       10       18       19       20 </v>
   <v type="int" >        4       10       18       18       20 </v>
   <v type="int" >        4        9       10       10       19 </v>
   <v type="int" >        4       10       10       19       20 </v>
   <v type="int" >        4        8       10       18       19 </v>
   <v type="int" >        4        8       10       18       20 </v>
   <v type="int" >        4        5        8       15       18 </v>
   <v type="int" >        4        4        8       15       18 </v>
   <v type="int" >        8        4        5        8       14 </v>
   <v type="int" >        4        5        8       14       15 </v>
   <v type="int" >        4        7        8       14       17 </v>
   <v type="int" >        8        8       14       17       18 </v>
   <v type="int" >        8        7        8        9       17 </v>
   <v type="int" >        4        8        9       17       18 </v>
   <v type="int" >        4        7        9       17       17 </v>
   <v type="int" >        4        9       17       17       19 </v>
   <v type="int" >        4        8        9       17       19 </v>
   <v type="int" >        4        4        8       14       17 </v>
   <v type="int" >        4        5        8       14       18 </v>
   <v type="int" >        8        3        4        7       13 </v>
   <v type="int" >        4        4        7       13       14 </v>
   <v type="int" >        4        6        7       13       16 </v>
   <v type="int" >        8        7       13       16       17 </v>
   <v type="int" >        4        6        7        7       16 </v>
   <v type="int" >        4        7        7       16       17 </v>
   <v type="int" >        4        3        7       13       16 </v>
   <v type="int" >        4        4        7       13       17 </v>
   <v type="int" >        8        2        3        6       12 </v>
   <v type="int" >        4        3        6       12       13 </v>
   <v type="int" >        4        2        6       12       12 </v>
   <v type="int" >        4        6       12       12       16 </v>
   <v type="int" >        4        3        6       12       16 </v>
   <v type="int" >        4        1        2        2       11 </v>
   <v type="int" >        4        2        2       11       12 </v>
  </varray>
  <i name="volumeweight">      0.00130208 </i>
 </kpoints>
 <parameters>
  <separator name="general" >
   <i type="string" name="SYSTEM">unknown system</i>
   <i type="logical" name="LCOMPAT"> F  </i>
  </separator>
  <separator name="electronic" >
   <i type="string" name="PREC">normal</i>
   <i name="ENMAX">    450.00000000</i>
   <i name="ENAUG">    345.27800000</i>
   <i name="EDIFF">      0.00001000</i>
   <i type="int" name="IALGO">    68</i>
   <i type="int" name="IWAVPR">    10</i>
   <i type="int" name="NBANDS">    22</i>
   <i name="NELECT">     36.00000000</i>
   <i type="int" name="TURBO">     0</i>
   <i type="int" name="IRESTART">     0</i>
   <i type="int" name="NREBOOT">     0</i>
   <i type="int" name="NMIN">     0</i>
   <i name="EREF">      0.00000000</i>
   <separator name="electronic smearing" >
    <i type="int" name="ISMEAR">    -5</i>
    <i name="SIGMA">      0.20000000</i>
    <i name="KSPACING">      0.50000000</i>
    <i type="logical" name="KGAMMA"> T  </i>
   </separator>
   <separator name="electronic projectors" >
    <i type="logical" name="LREAL"> F  </i>
    <v name="ROPT">      0.00000000      0.00000000</v>
    <i type="int" name="LMAXPAW">  -100</i>
    <i type="int" name="LMAXMIX">     2</i>
    <i type="logical" name="NLSPLINE"> F  </i>
   </separator>
   <separator name="electronic startup" >
    <i type="int" name="ISTART">     0</i>
    <i type="int" name="ICHARG">     2</i>
    <i type="int" name="INIWAV">     1</i>
   </separator>
   <separator name="electronic spin" >
    <i type="int" name="ISPIN">     1</i>
    <i type="logical" name="LNONCOLLINEAR"> F  </i>
    <v name="MAGMOM">      1.00000000      1.00000000      1.00000000      1.00000000      1.00000000      1.00000000</v>
    <i name="NUPDOWN">     -1.00000000</i>
    <i type="logical" name="LSORBIT"> F  </i>
    <v name="SAXIS">      0.00000000      0.00000000      1.00000000</v>
    <i type="logical" name="LSPIRAL"> F  </i>
    <v name="QSPIRAL">      0.00000000      0.00000000      0.00000000</v>
    <i type="logical" name="LZEROZ"> F  </i>
   </separator>
   <separator name="electronic exchange-correlation" >
    <i type="logical" name="LASPH"> F  </i>
    <i type="logical" name="LMETAGGA"> F  </i>
   </separator>
   <separator name="electronic convergence" >
    <i type="int" name="NELM">    60</i>
    <i type="int" name="NELMDL">     0</i>
    <i type="int" name="NELMIN">     4</i>
    <i name="ENINI">    450.00000000</i>
    <separator name="electronic convergence detail" >
     <i type="logical" name="LDIAG"> T  </i>
     <i type="logical" name="LSUBROT"> F  </i>
     <i name="WEIMIN">      0.00000000</i>
     <i name="EBREAK">      0.00000011</i>
     <i name="DEPER">      0.30000000</i>
     <i type="int" name="NRMM">     4</i>
     <i name="TIME">      0.40000000</i>
    </separator>
   </separator>
   <separator name="electronic mixer" >
    <i name="AMIX">      0.40000000</i>
    <i name="BMIX">      1.00000000</i>
    <i name="AMIN">      0.10000000</i>
    <i name="AMIX_MAG">      1.60000000</i>
    <i name="BMIX_MAG">      1.00000000</i>
    <separator name="electronic mixer details" >
     <i type="int" name="IMIX">     4</i>
     <i type="logical" name="MIXFIRST"> F  </i>
     <i type="int" name="MAXMIX">   -45</i>
     <i name="WC">    100.00000000</i>
     <i type="int" name="INIMIX">     1</i>
     <i type="int" name="MIXPRE">     1</i>
     <i type="int" name="MREMOVE">     5</i>
    </separator>
   </separator>
   <separator name="electronic dipolcorrection" >
    <i type="logical" name="LDIPOL"> F  </i>
    <i type="logical" name="LMONO"> F  </i>
    <i type="int" name="IDIPOL">     0</i>
    <i name="EPSILON">      1.00000000</i>
    <v name="DIPOL">   -100.00000000   -100.00000000   -100.00000000</v>
    <i name="EFIELD">      0.00000000</i>
   </separator>
  </separator>
  <separator name="grids" >
   <i type="int" name="NGX">    18</i>
   <i type="int" name="NGY">    18</i>
   <i type="int" name="NGZ">    80</i>
   <i type="int" name="NGXF">    36</i>
   <i type="int" name="NGYF">    36</i>
   <i type="int" name="NGZF">   160</i>
   <i type="logical" name="ADDGRID"> F  </i>
  </separator>
  <separator name="ionic" >
   <i type="int" name="NSW">     0</i>
   <i type="int" name="IBRION">    -1</i>
   <i type="int" name="MDALGO">     0</i>
   <i type="int" name="ISIF">     2</i>
   <i name="PSTRESS">      0.00000000</i>
   <i name="EDIFFG">      0.00010000</i>
   <i type="int" name="NFREE">     0</i>
   <i name="POTIM">      0.50000000</i>
   <i name="SMASS">     -3.00000000</i>
   <i name="SCALEE">      1.00000000</i>
  </separator>
  <separator name="ionic md" >
   <i name="TEBEG">      0.00010000</i>
   <i name="TEEND">      0.00010000</i>
   <i type="int" name="NBLOCK">     1</i>
   <i type="int" name="KBLOCK">     1</i>
   <i type="int" name="NPACO">   256</i>
   <i name="APACO">     16.00000000</i>
  </separator>
  <separator name="symmetry" >
   <i type="int" name="ISYM">     2</i>
   <i name="SYMPREC">      0.00001000</i>
  </separator>
  <separator name="dos" >
   <i type="int" name="LORBIT">     0</i>
   <v name="RWIGS">     -1.00000000     -1.00000000</v>
   <i type="int" name="NEDOS">   301</i>
   <i name="EMIN">     10.00000000</i>
   <i name="EMAX">    -10.00000000</i>
   <i name="EFERMI">      0.00000000</i>
  </separator>
  <separator name="writing" >
   <i type="int" name="NWRITE">     2</i>
   <i type="logical" name="LWAVE"> F  </i>
   <i type="logical" name="LDOWNSAMPLE"> F  </i>
   <i type="logical" name="LCHARG"> T  </i>
   <i type="logical" name="LPARD"> F  </i>
   <i type="logical" name="LVTOT"> F  </i>
   <i type="logical" name="LVHAR"> F  </i>
   <i type="logical" name="LELF"> F  </i>
   <i type="logical" name="LOPTICS"> F  </i>
   <v name="STM">      0.00000000      0.00000000      0.00000000      0.00000000      0.00000000      0.00000000      0.00000000</v>
  </separator>
  <separator name="performance" >
   <i type="int" name="NPAR">     2</i>
   <i type="int" name="NSIM">     4</i>
   <i type="int" name="NBLK">    -1</i>
   <i type="logical" name="LPLANE"> T  </i>
   <i type="logical" name="LSCALAPACK"> T  </i>
   <i type="logical" name="LSCAAWARE"> F  </i>
   <i type="logical" name="LSCALU"> F  </i>
   <i type="logical" name="LASYNC"> F  </i>
   <i type="logical" name="LORBITALREAL"> F  </i>
  </separator>
  <separator name="miscellaneous" >
   <i type="int" name="IDIOT">     3</i>
   <i type="int" name="ISPECIAL">     0</i>
   <i type="logical" name="LMUSIC"> F  </i>
   <v name="POMASS">     95.94000000     32.06600000</v>
   <v name="DARWINR">      0.00000000      0.00000000</v>
   <v name="DARWINV">      1.00000000      1.00000000</v>
   <i type="logical" name="LCORR"> T  </i>
  </separator>
  <i type="logical" name="GGA_COMPAT"> T  </i>
  <i type="logical" name="LBERRY"> F  </i>
  <i type="int" name="ICORELEVEL">     0</i>
  <i type="logical" name="LDAU"> F  </i>
  <i type="int" name="I_CONSTRAINED_M">     0</i>
  <separator name="electronic exchange-correlation" >
   <i type="string" name="GGA">--</i>
   <i type="int" name="VOSKOWN">     0</i>
   <i type="logical" name="LHFCALC"> F  </i>
   <i type="string" name="PRECFOCK"></i>
   <i type="logical" name="LSYMGRAD"> F  </i>
   <i type="logical" name="LHFONE"> F  </i>
   <i type="logical" name="LRHFCALC"> F  </i>
   <i type="logical" name="LTHOMAS"> F  </i>
   <i type="logical" name="LMODELHF"> F  </i>
   <i name="ENCUT4O">     -1.00000000</i>
   <i type="int" name="EXXOEP">     0</i>
   <i type="int" name="FOURORBIT">     0</i>
   <i name="AEXX">      0.00000000</i>
   <i name="HFALPHA">      0.00000000</i>
   <i name="MCALPHA">      0.00000000</i>
   <i name="ALDAX">      1.00000000</i>
   <i name="AGGAX">      1.00000000</i>
   <i name="ALDAC">      1.00000000</i>
   <i name="AGGAC">      1.00000000</i>
   <i type="int" name="NKREDX">     1</i>
   <i type="int" name="NKREDY">     1</i>
   <i type="int" name="NKREDZ">     1</i>
   <i type="logical" name="SHIFTRED"> F  </i>
   <i type="logical" name="ODDONLY"> F  </i>
   <i type="logical" name="EVENONLY"> F  </i>
   <i type="int" name="LMAXFOCK">     0</i>
   <i type="int" name="NMAXFOCKAE">     0</i>
   <i type="logical" name="LFOCKAEDFT"> F  </i>
   <i name="HFSCREEN">      0.00000000</i>
   <i name="HFSCREENC">      0.00000000</i>
   <i type="int" name="NBANDSGWLOW">     0</i>
  </separator>
  <separator name="vdW DFT" >
   <i type="logical" name="LUSE_VDW"> F  </i>
   <i name="Zab_VDW">     -0.84910000</i>
   <i name="PARAM1">      0.12340000</i>
   <i name="PARAM2">      1.00000000</i>
   <i name="PARAM3">      0.00000000</i>
  </separator>
  <separator name="model GW" >
   <i type="int" name="MODEL_GW">     0</i>
   <i name="MODEL_EPS0">     13.11510680</i>
   <i name="MODEL_ALPHA">      1.00000000</i>
  </separator>
  <separator name="linear response parameters" >
   <i type="logical" name="LEPSILON"> F  </i>
   <i type="logical" name="LRPA"> F  </i>
   <i type="logical" name="LNABLA"> F  </i>
   <i type="logical" name="LVEL"> F  </i>
   <i type="int" name="KINTER">     0</i>
   <i name="CSHIFT">      0.10000000</i>
   <i name="OMEGAMAX">     -1.00000000</i>
   <i name="DEG_THRESHOLD">      0.00200000</i>
   <i name="RTIME">     -0.10000000</i>
   <i name="WPLASMAI">      0.00000000</i>
   <v name="DFIELD">      0.00000000      0.00000000      0.00000000</v>
   <v name="WPLASMA">      0.00000000      0.00000000      0.00000000      0.00000000      0.00000000      0.00000000      0.00000000      0.00000000      0.00000000</v>
  </separator>
  <separator name="orbital magnetization" >
   <i type="logical" name="NUCIND"> F  </i>
   <v name="MAGPOS">      0.00000000      0.00000000      0.00000000</v>
   <i type="logical" name="LNICSALL"> T  </i>
   <i type="logical" name="ORBITALMAG"> F  </i>
   <i type="logical" name="LMAGBLOCH"> F  </i>
   <i type="logical" name="LCHIMAG"> F  </i>
   <i type="logical" name="LGAUGE"> T  </i>
   <i type="int" name="MAGATOM">     0</i>
   <v name="MAGDIPOL">      0.00000000      0.00000000      0.00000000</v>
   <v name="AVECCONST">      0.00000000      0.00000000      0.00000000</v>
  </separator>
  <separator name="response functions" >
   <i type="logical" name="LADDER"> F  </i>
   <i type="logical" name="LRPAFORCE"> F  </i>
   <i type="logical" name="LFXC"> F  </i>
   <i type="logical" name="LHARTREE"> T  </i>
   <i type="int" name="IBSE">     0</i>
   <v type="int" name="KPOINT">    -1     0     0     0</v>
   <i type="logical" name="LTCTE"> F  </i>
   <i type="logical" name="LTETE"> F  </i>
   <i type="logical" name="LTRIPLET"> F  </i>
   <i type="logical" name="LFXCEPS"> F  </i>
   <i type="logical" name="LFXHEG"> F  </i>
   <i type="int" name="NATURALO">     2</i>
   <i type="logical" name="L2ORDER"> F  </i>
   <i type="logical" name="LMP2LT"> F  </i>
   <i type="logical" name="LUSEW"> F  </i>
   <i name="ENCUTGW">     -2.00000000</i>
   <i name="ENCUTGWSOFT">     -2.00000000</i>
   <i name="ENCUTLF">     -1.00000000</i>
   <i type="int" name="LMAXMP2">    -1</i>
   <i name="SCISSOR">      0.00000000</i>
   <i type="int" name="NOMEGA">     0</i>
   <i type="int" name="NOMEGAR">     0</i>
   <i type="int" name="NBANDSGW">    -1</i>
   <i type="int" name="NBANDSO">    -1</i>
   <i type="int" name="NBANDSV">    -1</i>
   <i type="int" name="NELM">     1</i>
   <i type="int" name="NELMHF">     1</i>
   <i type="int" name="DIM">     3</i>
   <i type="int" name="ANTIRES">     0</i>
   <i name="OMEGAMAX">    -30.00000000</i>
   <i name="OMEGAMIN">    -30.00000000</i>
   <i name="OMEGATL">   -200.00000000</i>
   <i type="int" name="OMEGAGRID">   140</i>
   <i name="CSHIFT">     -0.10000000</i>
   <i type="logical" name="SELFENERGY"> F  </i>
   <i type="logical" name="LSPECTRAL"> F  </i>
   <i type="logical" name="LSPECTRALGW"> F  </i>
   <i type="logical" name="LSINGLES"> F  </i>
   <i type="logical" name="LFERMIGW"> F  </i>
   <i type="logical" name="ODDONLYGW"> F  </i>
   <i type="logical" name="EVENONLYGW"> F  </i>
   <i type="int" name="NKREDLFX">     1</i>
   <i type="int" name="NKREDLFY">     1</i>
   <i type="int" name="NKREDLFZ">     1</i>
   <i type="int" name="MAXMEM">  2800</i>
   <i type="int" name="TELESCOPE">     0</i>
   <i type="int" name="TAUPAR">     1</i>
   <i type="int" name="OMEGAPAR">    -1</i>
   <i name="LAMBDA">      1.00000000</i>
  </separator>
  <separator name="External order field" >
   <i name="OFIELD_KAPPA">      0.00000000</i>
   <v name="OFIELD_K">      0.00000000      0.00000000      0.00000000</v>
   <i name="OFIELD_Q6_NEAR">      0.00000000</i>
   <i name="OFIELD_Q6_FAR">      0.00000000</i>
   <i name="OFIELD_A">      0.00000000</i>
  </separator>
 </parameters>
 <atominfo>
  <atoms>       6 </atoms>
  <types>       2 </types>
  <array name="atoms" >
   <dimension dim="1">ion</dimension>
   <field type="string">element</field>
   <field type="int">atomtype</field>
   <set>
    <rc><c>Mo</c><c>   1</c></rc>
    <rc><c>Mo</c><c>   1</c></rc>
    <rc><c>S </c><c>   2</c></rc>
    <rc><c>S </c><c>   2</c></rc>
    <rc><c>S </c><c>   2</c></rc>
    <rc><c>S </c><c>   2</c></rc>
   </set>
  </array>
  <array name="atomtypes" >
   <dimension dim="1">type</dimension>
   <field type="int">atomspertype</field>
   <field type="string">element</field>
   <field>mass</field>
   <field>valence</field>
   <field type="string">pseudopotential</field>
   <set>
    <rc><c>   2</c><c>Mo</c><c>     95.94000000</c><c>      6.00000000</c><c> PAW_PBE Mo 08Apr2002                   </c></rc>
    <rc><c>   4</c><c>S </c><c>     32.06600000</c><c>      6.00000000</c><c>  PAW_PBE S 17Jan2003                   </c></rc>
   </set>
  </array>
 </atominfo>
 <structure name="initialpos" >
  <crystal>
   <varray name="basis" >
    <v>       3.19031573       0.00000000       0.00000000 </v>
    <v>      -1.59515786       2.76289447       0.00000000 </v>
    <v>       0.00000000       0.00000000      14.87900430 </v>
   </varray>
   <i name="volume">    131.15106795 </i>
   <varray name="rec_basis" >
    <v>       0.31344860       0.18096963       0.00000000 </v>
    <v>       0.00000000       0.36193927       0.00000000 </v>
    <v>       0.00000000       0.00000000       0.06720880 </v>
   </varray>
  </crystal>
  <varray name="positions" >
   <v>       0.33333300       0.66666700       0.25000000 </v>
   <v>       0.66666700       0.33333300       0.75000000 </v>
   <v>       0.33333300       0.66666700       0.85517400 </v>
   <v>       0.66666700       0.33333300       0.14482600 </v>
   <v>       0.66666600       0.33333300       0.35517400 </v>
   <v>       0.33333400       0.66666700       0.64482600 </v>
  </varray>
 </structure>
 <calculation>
  <scstep>
   <time name="dav">    0.42    0.42</time>
   <time name="total">    0.45    0.49</time>
   <energy>
    <i name="alphaZ">     90.42577596 </i>
    <i name="ewald">  -1146.88905665 </i>
    <i name="hartreedc">   -535.10238363 </i>
    <i name="XCdc">    -72.59368150 </i>
    <i name="pawpsdc">    813.77302396 </i>
    <i name="pawaedc">   -658.68146406 </i>
    <i name="eentropy">      0.00000000 </i>
    <i name="bandstr">    170.96375375 </i>
    <i name="atom">   1542.31022798 </i>
    <i name="e_fr_energy">    204.20619583 </i>
    <i name="e_wo_entrp">    204.20619583 </i>
    <i name="e_0_energy">    204.20619583 </i>
   </energy>
  </scstep>
  <scstep>
   <time name="dav">    0.52    0.52</time>
   <time name="total">    0.52    0.52</time>
   <energy>
    <i name="e_fr_energy">    -28.73738293 </i>
    <i name="e_wo_entrp">    -28.73738293 </i>
    <i name="e_0_energy">    -28.73738293 </i>
   </energy>
  </scstep>
  <scstep>
   <time name="dav">    0.51    0.52</time>
   <time name="total">    0.52    0.52</time>
   <energy>
    <i name="e_fr_energy">    -46.29696913 </i>
    <i name="e_wo_entrp">    -46.29696913 </i>
    <i name="e_0_energy">    -46.29696913 </i>
   </energy>
  </scstep>
  <scstep>
   <time name="dav">    0.52    0.52</time>
   <time name="total">    0.52    0.52</time>
   <energy>
    <i name="e_fr_energy">    -46.80507469 </i>
    <i name="e_wo_entrp">    -46.80507469 </i>
    <i name="e_0_energy">    -46.80507469 </i>
   </energy>
  </scstep>
  <scstep>
   <time name="dav">    0.52    0.53</time>
   <time name="total">    0.56    0.57</time>
   <energy>
    <i name="e_fr_energy">    -46.82037425 </i>
    <i name="e_wo_entrp">    -46.82037425 </i>
    <i name="e_0_energy">    -46.82037425 </i>
   </energy>
  </scstep>
  <scstep>
   <time name="diag">    0.09    0.09</time>
   <time name="diis">    0.35    0.36</time>
   <time name="orth">    0.01    0.01</time>
   <time name="total">    0.52    0.52</time>
   <energy>
    <i name="e_fr_energy">    -44.43770099 </i>
    <i name="e_wo_entrp">    -44.43770099 </i>
    <i name="e_0_energy">    -44.43770099 </i>
   </energy>
  </scstep>
  <scstep>
   <time name="diag">    0.09    0.09</time>
   <time name="diis">    0.35    0.35</time>
   <time name="orth">    0.01    0.01</time>
   <time name="total">    0.51    0.52</time>
   <energy>
    <i name="e_fr_energy">    -43.69488503 </i>
    <i name="e_wo_entrp">    -43.69488503 </i>
    <i name="e_0_energy">    -43.69488503 </i>
   </energy>
  </scstep>
  <scstep>
   <time name="diag">    0.09    0.09</time>
   <time name="diis">    0.36    0.36</time>
   <time name="orth">    0.01    0.01</time>
   <time name="total">    0.53    0.53</time>
   <energy>
    <i name="e_fr_energy">    -43.63126806 </i>
    <i name="e_wo_entrp">    -43.63126806 </i>
    <i name="e_0_energy">    -43.63126806 </i>
   </energy>
  </scstep>
  <scstep>
   <time name="diag">    0.09    0.09</time>
   <time name="diis">    0.37    0.37</time>
   <time name="orth">    0.01    0.01</time>
   <time name="total">    0.54    0.54</time>
   <energy>
    <i name="e_fr_energy">    -43.61994409 </i>
    <i name="e_wo_entrp">    -43.61994409 </i>
    <i name="e_0_energy">    -43.61994409 </i>
   </energy>
  </scstep>
  <scstep>
   <time name="diag">    0.09    0.09</time>
   <time name="diis">    0.38    0.38</time>
   <time name="orth">    0.01    0.01</time>
   <time name="total">    0.55    0.55</time>
   <energy>
    <i name="e_fr_energy">    -43.60518733 </i>
    <i name="e_wo_entrp">    -43.60518733 </i>
    <i name="e_0_energy">    -43.60518733 </i>
   </energy>
  </scstep>
  <scstep>
   <time name="diag">    0.09    0.09</time>
   <time name="diis">    0.39    0.39</time>
   <time name="orth">    0.01    0.01</time>
   <time name="total">    0.56    0.56</time>
   <energy>
    <i name="e_fr_energy">    -43.60519358 </i>
    <i name="e_wo_entrp">    -43.60519358 </i>
    <i name="e_0_energy">    -43.60519358 </i>
   </energy>
  </scstep>
  <scstep>
   <time name="diag">    0.09    0.09</time>
   <time name="diis">    0.39    0.39</time>
   <time name="orth">    0.01    0.01</time>
   <time name="total">    0.56    0.56</time>
   <energy>
    <i name="e_fr_energy">    -43.60533505 </i>
    <i name="e_wo_entrp">    -43.60533505 </i>
    <i name="e_0_energy">    -43.60533505 </i>
   </energy>
  </scstep>
  <scstep>
   <time name="diag">    0.09    0.09</time>
   <time name="diis">    0.40    0.40</time>
   <time name="orth">    0.01    0.01</time>
   <time name="total">    0.57    0.57</time>
   <energy>
    <i name="e_fr_energy">    -43.60534116 </i>
    <i name="e_wo_entrp">    -43.60534116 </i>
    <i name="e_0_energy">    -43.60534116 </i>
   </energy>
  </scstep>
  <scstep>
   <time name="diag">    0.09    0.09</time>
   <time name="diis">    0.31    0.31</time>
   <time name="orth">    0.01    0.01</time>
   <time name="total">    0.47    0.47</time>
   <energy>
    <i name="e_fr_energy">    -43.60532894 </i>
    <i name="e_wo_entrp">    -43.60532894 </i>
    <i name="e_0_energy">    -43.60532894 </i>
   </energy>
  </scstep>
  <scstep>
   <time name="diag">    0.09    0.09</time>
   <time name="diis">    0.26    0.26</time>
   <time name="orth">    0.01    0.01</time>
   <time name="total">    0.38    0.39</time>
   <energy>
    <i name="alphaZ">     90.42577596 </i>
    <i name="ewald">  -1146.88905665 </i>
    <i name="hartreedc">   -542.95269849 </i>
    <i name="XCdc">    -70.39235387 </i>
    <i name="pawpsdc">    944.34451655 </i>
    <i name="pawaedc">   -792.72591708 </i>
    <i name="eentropy">      0.00000000 </i>
    <i name="bandstr">    -67.72582376 </i>
    <i name="atom">   1542.31022798 </i>
    <i name="e_fr_energy">    -43.60532935 </i>
    <i name="e_wo_entrp">    -43.60532935 </i>
    <i name="e_0_energy">    -43.60532935 </i>
   </energy>
  </scstep>
  <structure>
   <crystal>
    <varray name="basis" >
     <v>       3.19031573       0.00000000       0.00000000 </v>
     <v>      -1.59515786       2.76289447       0.00000000 </v>
     <v>       0.00000000       0.00000000      14.87900430 </v>
    </varray>
    <i name="volume">    131.15106795 </i>
    <varray name="rec_basis" >
     <v>       0.31344860       0.18096963       0.00000000 </v>
     <v>       0.00000000       0.36193927       0.00000000 </v>
     <v>       0.00000000       0.00000000       0.06720880 </v>
    </varray>
   </crystal>
   <varray name="positions" >
    <v>       0.33333300       0.66666700       0.25000000 </v>
    <v>       0.66666700       0.33333300       0.75000000 </v>
    <v>       0.33333300       0.66666700       0.85517400 </v>
    <v>       0.66666700       0.33333300       0.14482600 </v>
    <v>       0.66666600       0.33333300       0.35517400 </v>
    <v>       0.33333400       0.66666700       0.64482600 </v>
   </varray>
  </structure>
  <varray name="forces" >
   <v>      -0.00000000      -0.00000000       0.00000000 </v>
   <v>      -0.00000000      -0.00000000       0.00000000 </v>
   <v>      -0.00000000       0.00000000      -0.08530986 </v>
   <v>       0.00000000      -0.00000000       0.08530986 </v>
   <v>       0.00000000      -0.00000000      -0.08530986 </v>
   <v>      -0.00000000       0.00000000       0.08530986 </v>
  </varray>
  <varray name="stress" >
   <v>      -5.08001824       0.00000000       0.00000000 </v>
   <v>      -0.00000000      -5.08001824       0.00000000 </v>
   <v>       0.00000000       0.00000000     -16.55223678 </v>
  </varray>
  <energy>
   <i name="e_fr_energy">    -44.93661637 </i>
   <i name="e_wo_entrp">    -44.93661637 </i>
   <i name="e_0_energy">      0.00000000 </i>
  </energy>
  <time name="totalsc">    8.53    8.64</time>
  <eigenvalues>
   <array>
    <dimension dim="1">band</dimension>
    <dimension dim="2">kpoint</dimension>
    <dimension dim="3">spin</dimension>
    <field>eigene</field>
    <field>occ</field>
    <set>
     <set comment="spin 1">
      <set comment="kpoint 1">
       <r>  -10.9296    1.0000 </r>
       <r>  -10.9106    1.0000 </r>
       <r>   -9.7292    1.0000 </r>
       <r>   -9.6952    1.0000 </r>
       <r>   -2.5232    1.0000 </r>
       <r>   -2.3617    1.0000 </r>
       <r>    0.5200    1.0000 </r>
       <r>    0.5200    1.0000 </r>
       <r>    0.5205    1.0000 </r>
       <r>    0.5205    1.0000 </r>
       <r>    1.1062    1.0000 </r>
       <r>    1.6249    1.0000 </r>
       <r>    1.6250    1.0000 </r>
       <r>    1.6268    1.0000 </r>
       <r>    1.6269    1.0000 </r>
       <r>    1.6748    1.0000 </r>
       <r>    2.9225    1.0000 </r>
       <r>    3.2984    1.0000 </r>
       <r>    5.8749    0.0000 </r>
       <r>    5.9117    0.0000 </r>
       <r>    6.0196    0.0000 </r>
       <r>    6.0856    0.0000 </r>
      </set>
      <set comment="kpoint 2">
       <r>  -10.7153    1.0000 </r>
       <r>  -10.6967    1.0000 </r>
       <r>   -9.6255    1.0000 </r>
       <r>   -9.5941    1.0000 </r>
       <r>   -2.2774    1.0000 </r>
       <r>   -2.1185    1.0000 </r>
       <r>    0.0555    1.0000 </r>
       <r>    0.0582    1.0000 </r>
       <r>    0.4568    1.0000 </r>
       <r>    0.6730    1.0000 </r>
       <r>    0.7541    1.0000 </r>
       <r>    0.7553    1.0000 </r>
       <r>    1.2889    1.0000 </r>
       <r>    1.2915    1.0000 </r>
       <r>    1.9308    1.0000 </r>
       <r>    2.2148    1.0000 </r>
       <r>    2.8434    1.0000 </r>
       <r>    3.0855    1.0000 </r>
       <r>    5.5208    0.0000 </r>
       <r>    5.6697    0.0000 </r>
       <r>    5.7089    0.0000 </r>
       <r>    5.8195    0.0000 </r>
      </set>
      <set comment="kpoint 3">
       <r>  -10.1456    1.0000 </r>
       <r>  -10.1289    1.0000 </r>
       <r>   -9.3531    1.0000 </r>
       <r>   -9.3287    1.0000 </r>
       <r>   -1.8874    1.0000 </r>
       <r>   -1.7766    1.0000 </r>
       <r>   -0.6912    1.0000 </r>
       <r>   -0.6477    1.0000 </r>
       <r>   -0.4609    1.0000 </r>
       <r>   -0.3594    1.0000 </r>
       <r>    0.6534    1.0000 </r>
       <r>    0.6569    1.0000 </r>
       <r>    1.3400    1.0000 </r>
       <r>    1.3436    1.0000 </r>
       <r>    1.7044    1.0000 </r>
       <r>    1.9132    1.0000 </r>
       <r>    2.3699    1.0000 </r>
       <r>    2.4184    1.0000 </r>
       <r>    5.1191    0.0000 </r>
       <r>    5.4390    0.0000 </r>
       <r>    5.4431    0.0000 </r>
       <r>    5.4564    0.0000 </r>
      </set>
      <set comment="kpoint 4">
       <r>   -9.4680    1.0000 </r>
       <r>   -9.4561    1.0000 </r>
       <r>   -9.0395    1.0000 </r>
       <r>   -9.0252    1.0000 </r>
       <r>   -2.2849    1.0000 </r>
       <r>   -2.2502    1.0000 </r>
       <r>   -1.2972    1.0000 </r>
       <r>   -1.2542    1.0000 </r>
       <r>   -0.8462    1.0000 </r>
       <r>   -0.7612    1.0000 </r>
       <r>    0.1559    1.0000 </r>
       <r>    0.1599    1.0000 </r>
       <r>    1.3423    1.0000 </r>
       <r>    1.4499    1.0000 </r>
       <r>    1.9282    1.0000 </r>
       <r>    1.9367    1.0000 </r>
       <r>    2.1736    1.0000 </r>
       <r>    2.2244    1.0000 </r>
       <r>    5.2595    0.0000 </r>
       <r>    5.2686    0.0000 </r>
       <r>    5.4543    0.0000 </r>
       <r>    5.6334    0.0000 </r>
      </set>
      <set comment="kpoint 5">
       <r>   -9.1370    1.0000 </r>
       <r>   -9.1305    1.0000 </r>
       <r>   -8.8922    1.0000 </r>
       <r>   -8.8857    1.0000 </r>
       <r>   -2.6134    1.0000 </r>
       <r>   -2.5864    1.0000 </r>
       <r>   -1.6525    1.0000 </r>
       <r>   -1.6280    1.0000 </r>
       <r>   -0.9680    1.0000 </r>
       <r>   -0.8921    1.0000 </r>
       <r>   -0.0247    1.0000 </r>
       <r>   -0.0206    1.0000 </r>
       <r>    1.2469    1.0000 </r>
       <r>    1.2664    1.0000 </r>
       <r>    2.1535    1.0000 </r>
       <r>    2.1657    1.0000 </r>
       <r>    2.4773    1.0000 </r>
       <r>    2.4811    1.0000 </r>
       <r>    5.2843    0.0000 </r>
       <r>    5.2881    0.0000 </r>
       <r>    5.7740    0.0000 </r>
       <r>    5.8289    0.0000 </r>
      </set>
      <set comment="kpoint 6">
       <r>  -10.3219    1.0000 </r>
       <r>  -10.3044    1.0000 </r>
       <r>   -9.4360    1.0000 </r>
       <r>   -9.4093    1.0000 </r>
       <r>   -1.9206    1.0000 </r>
       <r>   -1.7808    1.0000 </r>
       <r>   -0.5133    1.0000 </r>
       <r>   -0.5007    1.0000 </r>
       <r>   -0.0648    1.0000 </r>
       <r>    0.0773    1.0000 </r>
       <r>    0.4643    1.0000 </r>
       <r>    0.4904    1.0000 </r>
       <r>    1.0933    1.0000 </r>
       <r>    1.0951    1.0000 </r>
       <r>    2.0961    1.0000 </r>
       <r>    2.2985    1.0000 </r>
       <r>    2.5522    1.0000 </r>
       <r>    2.6278    1.0000 </r>
       <r>    5.0621    0.0000 </r>
       <r>    5.3278    0.0000 </r>
       <r>    5.5188    0.0000 </r>
       <r>    5.5863    0.0000 </r>
      </set>
      <set comment="kpoint 7">
       <r>   -9.6866    1.0000 </r>
       <r>   -9.6725    1.0000 </r>
       <r>   -9.1332    1.0000 </r>
       <r>   -9.1150    1.0000 </r>
       <r>   -1.9392    1.0000 </r>
       <r>   -1.8861    1.0000 </r>
       <r>   -0.9507    1.0000 </r>
       <r>   -0.9195    1.0000 </r>
       <r>   -0.7082    1.0000 </r>
       <r>   -0.6347    1.0000 </r>
       <r>   -0.0663    1.0000 </r>
       <r>    0.0084    1.0000 </r>
       <r>    1.1907    1.0000 </r>
       <r>    1.1965    1.0000 </r>
       <r>    1.7876    1.0000 </r>
       <r>    1.8740    1.0000 </r>
       <r>    2.3025    1.0000 </r>
       <r>    2.3123    1.0000 </r>
       <r>    4.9960    0.0000 </r>
       <r>    5.2124    0.0000 </r>
       <r>    5.5348    0.0000 </r>
       <r>    5.6678    0.0000 </r>
      </set>
      <set comment="kpoint 8">
       <r>   -9.1529    1.0000 </r>
       <r>   -9.1452    1.0000 </r>
       <r>   -8.8842    1.0000 </r>
       <r>   -8.8759    1.0000 </r>
       <r>   -2.3261    1.0000 </r>
       <r>   -2.2991    1.0000 </r>
       <r>   -1.7018    1.0000 </r>
       <r>   -1.6927    1.0000 </r>
       <r>   -0.8376    1.0000 </r>
       <r>   -0.7670    1.0000 </r>
       <r>   -0.0668    1.0000 </r>
       <r>   -0.0244    1.0000 </r>
       <r>    1.2004    1.0000 </r>
       <r>    1.2166    1.0000 </r>
       <r>    1.3287    1.0000 </r>
       <r>    1.3670    1.0000 </r>
       <r>    2.6249    1.0000 </r>
       <r>    2.6432    1.0000 </r>
       <r>    5.2707    0.0000 </r>
       <r>    5.3349    0.0000 </r>
       <r>    5.7793    0.0000 </r>
       <r>    5.8545    0.0000 </r>
      </set>
      <set comment="kpoint 9">
       <r>   -9.1683    1.0000 </r>
       <r>   -9.1596    1.0000 </r>
       <r>   -8.8760    1.0000 </r>
       <r>   -8.8661    1.0000 </r>
       <r>   -1.9668    1.0000 </r>
       <r>   -1.9383    1.0000 </r>
       <r>   -1.7532    1.0000 </r>
       <r>   -1.7420    1.0000 </r>
       <r>   -0.4878    1.0000 </r>
       <r>   -0.4633    1.0000 </r>
       <r>   -0.1388    1.0000 </r>
       <r>   -0.0506    1.0000 </r>
       <r>    0.2151    1.0000 </r>
       <r>    0.2377    1.0000 </r>
       <r>    1.4766    1.0000 </r>
       <r>    1.4873    1.0000 </r>
       <r>    2.6009    1.0000 </r>
       <r>    2.6106    1.0000 </r>
       <r>    5.1856    0.0000 </r>
       <r>    5.3138    0.0000 </r>
       <r>    5.9041    0.0000 </r>
       <r>    6.0934    0.0000 </r>
      </set>
      <set comment="kpoint 10">
       <r>   -8.9306    1.0000 </r>
       <r>   -8.9275    1.0000 </r>
       <r>   -8.7535    1.0000 </r>
       <r>   -8.7503    1.0000 </r>
       <r>   -2.1374    1.0000 </r>
       <r>   -2.1266    1.0000 </r>
       <r>   -1.7914    1.0000 </r>
       <r>   -1.7753    1.0000 </r>
       <r>   -0.7776    1.0000 </r>
       <r>   -0.7404    1.0000 </r>
       <r>   -0.1066    1.0000 </r>
       <r>   -0.0857    1.0000 </r>
       <r>    0.1073    1.0000 </r>
       <r>    0.1583    1.0000 </r>
       <r>    1.0760    1.0000 </r>
       <r>    1.1160    1.0000 </r>
       <r>    2.9624    1.0000 </r>
       <r>    2.9836    1.0000 </r>
       <r>    4.9237    0.0000 </r>
       <r>    4.9326    0.0000 </r>
       <r>    6.1511    0.0000 </r>
       <r>    6.3239    0.0000 </r>
      </set>
      <set comment="kpoint 11">
       <r>  -10.9203    1.0000 </r>
       <r>  -10.9203    1.0000 </r>
       <r>   -9.7121    1.0000 </r>
       <r>   -9.7121    1.0000 </r>
       <r>   -2.4453    1.0000 </r>
       <r>   -2.4453    1.0000 </r>
       <r>    0.5202    1.0000 </r>
       <r>    0.5202    1.0000 </r>
       <r>    0.5202    1.0000 </r>
       <r>    0.5202    1.0000 </r>
       <r>    1.3631    1.0000 </r>
       <r>    1.3631    1.0000 </r>
       <r>    1.6259    1.0000 </r>
       <r>    1.6259    1.0000 </r>
       <r>    1.6259    1.0000 </r>
       <r>    1.6259    1.0000 </r>
       <r>    3.1411    1.0000 </r>
       <r>    3.1411    1.0000 </r>
       <r>    5.8735    0.0000 </r>
       <r>    5.9040    0.0000 </r>
       <r>    5.9541    0.0000 </r>
       <r>    6.0897    0.0000 </r>
      </set>
      <set comment="kpoint 12">
       <r>  -10.7061    1.0000 </r>
       <r>  -10.7061    1.0000 </r>
       <r>   -9.6097    1.0000 </r>
       <r>   -9.6097    1.0000 </r>
       <r>   -2.2010    1.0000 </r>
       <r>   -2.2010    1.0000 </r>
       <r>    0.0566    1.0000 </r>
       <r>    0.0566    1.0000 </r>
       <r>    0.5715    1.0000 </r>
       <r>    0.5715    1.0000 </r>
       <r>    0.7547    1.0000 </r>
       <r>    0.7547    1.0000 </r>
       <r>    1.2902    1.0000 </r>
       <r>    1.2902    1.0000 </r>
       <r>    2.0431    1.0000 </r>
       <r>    2.0431    1.0000 </r>
       <r>    2.9904    1.0000 </r>
       <r>    2.9905    1.0000 </r>
       <r>    5.5779    0.0000 </r>
       <r>    5.6278    0.0000 </r>
       <r>    5.7031    0.0000 </r>
       <r>    5.8579    0.0000 </r>
      </set>
      <set comment="kpoint 13">
       <r>  -10.1373    1.0000 </r>
       <r>  -10.1373    1.0000 </r>
       <r>   -9.3408    1.0000 </r>
       <r>   -9.3408    1.0000 </r>
       <r>   -1.8338    1.0000 </r>
       <r>   -1.8338    1.0000 </r>
       <r>   -0.6751    1.0000 </r>
       <r>   -0.6751    1.0000 </r>
       <r>   -0.4022    1.0000 </r>
       <r>   -0.4022    1.0000 </r>
       <r>    0.6552    1.0000 </r>
       <r>    0.6552    1.0000 </r>
       <r>    1.3418    1.0000 </r>
       <r>    1.3418    1.0000 </r>
       <r>    1.8009    1.0000 </r>
       <r>    1.8009    1.0000 </r>
       <r>    2.3997    1.0000 </r>
       <r>    2.3997    1.0000 </r>
       <r>    5.2602    0.0000 </r>
       <r>    5.2631    0.0000 </r>
       <r>    5.4461    0.0000 </r>
       <r>    5.4578    0.0000 </r>
      </set>
      <set comment="kpoint 14">
       <r>   -9.4622    1.0000 </r>
       <r>   -9.4622    1.0000 </r>
       <r>   -9.0323    1.0000 </r>
       <r>   -9.0323    1.0000 </r>
       <r>   -2.2678    1.0000 </r>
       <r>   -2.2678    1.0000 </r>
       <r>   -1.2776    1.0000 </r>
       <r>   -1.2776    1.0000 </r>
       <r>   -0.8017    1.0000 </r>
       <r>   -0.8017    1.0000 </r>
       <r>    0.1579    1.0000 </r>
       <r>    0.1579    1.0000 </r>
       <r>    1.3940    1.0000 </r>
       <r>    1.3940    1.0000 </r>
       <r>    1.9324    1.0000 </r>
       <r>    1.9324    1.0000 </r>
       <r>    2.2010    1.0000 </r>
       <r>    2.2010    1.0000 </r>
       <r>    5.2640    0.0000 </r>
       <r>    5.2640    0.0000 </r>
       <r>    5.5374    0.0000 </r>
       <r>    5.5375    0.0000 </r>
      </set>
      <set comment="kpoint 15">
       <r>   -9.1338    1.0000 </r>
       <r>   -9.1338    1.0000 </r>
       <r>   -8.8890    1.0000 </r>
       <r>   -8.8890    1.0000 </r>
       <r>   -2.6000    1.0000 </r>
       <r>   -2.6000    1.0000 </r>
       <r>   -1.6411    1.0000 </r>
       <r>   -1.6411    1.0000 </r>
       <r>   -0.9291    1.0000 </r>
       <r>   -0.9291    1.0000 </r>
       <r>   -0.0227    1.0000 </r>
       <r>   -0.0227    1.0000 </r>
       <r>    1.2564    1.0000 </r>
       <r>    1.2565    1.0000 </r>
       <r>    2.1596    1.0000 </r>
       <r>    2.1596    1.0000 </r>
       <r>    2.4793    1.0000 </r>
       <r>    2.4793    1.0000 </r>
       <r>    5.2862    0.0000 </r>
       <r>    5.2862    0.0000 </r>
       <r>    5.8018    0.0000 </r>
       <r>    5.8061    0.0000 </r>
      </set>
      <set comment="kpoint 16">
       <r>  -10.3133    1.0000 </r>
       <r>  -10.3133    1.0000 </r>
       <r>   -9.4226    1.0000 </r>
       <r>   -9.4226    1.0000 </r>
       <r>   -1.8536    1.0000 </r>
       <r>   -1.8536    1.0000 </r>
       <r>   -0.5088    1.0000 </r>
       <r>   -0.5087    1.0000 </r>
       <r>    0.0130    1.0000 </r>
       <r>    0.0130    1.0000 </r>
       <r>    0.4763    1.0000 </r>
       <r>    0.4763    1.0000 </r>
       <r>    1.0942    1.0000 </r>
       <r>    1.0942    1.0000 </r>
       <r>    2.1820    1.0000 </r>
       <r>    2.1820    1.0000 </r>
       <r>    2.6017    1.0000 </r>
       <r>    2.6017    1.0000 </r>
       <r>    5.1825    0.0000 </r>
       <r>    5.1844    0.0000 </r>
       <r>    5.5502    0.0000 </r>
       <r>    5.5609    0.0000 </r>
      </set>
      <set comment="kpoint 17">
       <r>   -9.6796    1.0000 </r>
       <r>   -9.6796    1.0000 </r>
       <r>   -9.1240    1.0000 </r>
       <r>   -9.1240    1.0000 </r>
       <r>   -1.9130    1.0000 </r>
       <r>   -1.9130    1.0000 </r>
       <r>   -0.9370    1.0000 </r>
       <r>   -0.9370    1.0000 </r>
       <r>   -0.6713    1.0000 </r>
       <r>   -0.6713    1.0000 </r>
       <r>   -0.0263    1.0000 </r>
       <r>   -0.0263    1.0000 </r>
       <r>    1.1934    1.0000 </r>
       <r>    1.1935    1.0000 </r>
       <r>    1.8287    1.0000 </r>
       <r>    1.8287    1.0000 </r>
       <r>    2.3081    1.0000 </r>
       <r>    2.3081    1.0000 </r>
       <r>    5.1027    0.0000 </r>
       <r>    5.1027    0.0000 </r>
       <r>    5.5536    0.0000 </r>
       <r>    5.5701    0.0000 </r>
      </set>
      <set comment="kpoint 18">
       <r>   -9.1491    1.0000 </r>
       <r>   -9.1491    1.0000 </r>
       <r>   -8.8800    1.0000 </r>
       <r>   -8.8800    1.0000 </r>
       <r>   -2.3127    1.0000 </r>
       <r>   -2.3127    1.0000 </r>
       <r>   -1.6974    1.0000 </r>
       <r>   -1.6974    1.0000 </r>
       <r>   -0.8030    1.0000 </r>
       <r>   -0.8030    1.0000 </r>
       <r>   -0.0442    1.0000 </r>
       <r>   -0.0442    1.0000 </r>
       <r>    1.2078    1.0000 </r>
       <r>    1.2078    1.0000 </r>
       <r>    1.3478    1.0000 </r>
       <r>    1.3478    1.0000 </r>
       <r>    2.6343    1.0000 </r>
       <r>    2.6343    1.0000 </r>
       <r>    5.3031    0.0000 </r>
       <r>    5.3031    0.0000 </r>
       <r>    5.8121    0.0000 </r>
       <r>    5.8150    0.0000 </r>
      </set>
      <set comment="kpoint 19">
       <r>   -9.1641    1.0000 </r>
       <r>   -9.1640    1.0000 </r>
       <r>   -8.8710    1.0000 </r>
       <r>   -8.8710    1.0000 </r>
       <r>   -1.9527    1.0000 </r>
       <r>   -1.9527    1.0000 </r>
       <r>   -1.7474    1.0000 </r>
       <r>   -1.7474    1.0000 </r>
       <r>   -0.4793    1.0000 </r>
       <r>   -0.4793    1.0000 </r>
       <r>   -0.0905    1.0000 </r>
       <r>   -0.0905    1.0000 </r>
       <r>    0.2266    1.0000 </r>
       <r>    0.2266    1.0000 </r>
       <r>    1.4809    1.0000 </r>
       <r>    1.4810    1.0000 </r>
       <r>    2.6058    1.0000 </r>
       <r>    2.6058    1.0000 </r>
       <r>    5.2495    0.0000 </r>
       <r>    5.2498    0.0000 </r>
       <r>    5.8649    0.0000 </r>
       <r>    6.1877    0.0000 </r>
      </set>
      <set comment="kpoint 20">
       <r>   -8.9291    1.0000 </r>
       <r>   -8.9291    1.0000 </r>
       <r>   -8.7519    1.0000 </r>
       <r>   -8.7519    1.0000 </r>
       <r>   -2.1321    1.0000 </r>
       <r>   -2.1321    1.0000 </r>
       <r>   -1.7831    1.0000 </r>
       <r>   -1.7831    1.0000 </r>
       <r>   -0.7600    1.0000 </r>
       <r>   -0.7600    1.0000 </r>
       <r>   -0.0989    1.0000 </r>
       <r>   -0.0989    1.0000 </r>
       <r>    0.1376    1.0000 </r>
       <r>    0.1376    1.0000 </r>
       <r>    1.0945    1.0000 </r>
       <r>    1.0945    1.0000 </r>
       <r>    2.9730    1.0000 </r>
       <r>    2.9730    1.0000 </r>
       <r>    4.9283    0.0000 </r>
       <r>    4.9283    0.0000 </r>
       <r>    6.2314    0.0000 </r>
       <r>    6.2714    0.0000 </r>
      </set>
     </set>
    </set>
   </array>
  </eigenvalues>
  <separator name="orbital magnetization" >
   <v name="MAGDIPOLOUT">      0.00000000      0.00000000      0.00000000</v>
  </separator>
  <dos>
   <i name="efermi">      3.30272393 </i>
   <total>
    <array>
     <dimension dim="1">gridpoints</dimension>
     <dimension dim="2">spin</dimension>
     <field>energy</field>
     <field>total</field>
     <field>integrated</field>
     <set>
      <set comment="spin 1">
       <r>   -12.9296     0.0000     0.0000 </r>
       <r>   -12.8588     0.0000     0.0000 </r>
       <r>   -12.7880     0.0000     0.0000 </r>
       <r>   -12.7171     0.0000     0.0000 </r>
       <r>   -12.6463     0.0000     0.0000 </r>
       <r>   -12.5754     0.0000     0.0000 </r>
       <r>   -12.5046     0.0000     0.0000 </r>
       <r>   -12.4337     0.0000     0.0000 </r>
       <r>   -12.3629     0.0000     0.0000 </r>
       <r>   -12.2920     0.0000     0.0000 </r>
       <r>   -12.2212     0.0000     0.0000 </r>
       <r>   -12.1503     0.0000     0.0000 </r>
       <r>   -12.0795     0.0000     0.0000 </r>
       <r>   -12.0087     0.0000     0.0000 </r>
       <r>   -11.9378     0.0000     0.0000 </r>
       <r>   -11.8670     0.0000     0.0000 </r>
       <r>   -11.7961     0.0000     0.0000 </r>
       <r>   -11.7253     0.0000     0.0000 </r>
       <r>   -11.6544     0.0000     0.0000 </r>
       <r>   -11.5836     0.0000     0.0000 </r>
       <r>   -11.5127     0.0000     0.0000 </r>
       <r>   -11.4419     0.0000     0.0000 </r>
       <r>   -11.3710     0.0000     0.0000 </r>
       <r>   -11.3002     0.0000     0.0000 </r>
       <r>   -11.2294     0.0000     0.0000 </r>
       <r>   -11.1585     0.0000     0.0000 </r>
       <r>   -11.0877     0.0000     0.0000 </r>
       <r>   -11.0168     0.0000     0.0000 </r>
       <r>   -10.9460     0.0000     0.0000 </r>
       <r>   -10.8751     0.3685     0.0084 </r>
       <r>   -10.8043     0.9477     0.0550 </r>
       <r>   -10.7334     1.5270     0.1427 </r>
       <r>   -10.6626     0.9948     0.2299 </r>
       <r>   -10.5918     1.0605     0.3027 </r>
       <r>   -10.5209     1.1261     0.3801 </r>
       <r>   -10.4501     1.1918     0.4622 </r>
       <r>   -10.3792     1.2574     0.5490 </r>
       <r>   -10.3084     1.3191     0.6404 </r>
       <r>   -10.2375     1.3312     0.7343 </r>
       <r>   -10.1667     1.3431     0.8290 </r>
       <r>   -10.0958     1.3801     0.9251 </r>
       <r>   -10.0250     1.4350     1.0248 </r>
       <r>    -9.9541     1.4899     1.1284 </r>
       <r>    -9.8833     1.5448     1.2359 </r>
       <r>    -9.8125     1.5997     1.3473 </r>
       <r>    -9.7416     1.6546     1.4626 </r>
       <r>    -9.6708     3.3360     1.6151 </r>
       <r>    -9.5999     4.3960     1.9283 </r>
       <r>    -9.5291     4.5901     2.2370 </r>
       <r>    -9.4582     5.0863     2.5796 </r>
       <r>    -9.3874     5.5556     2.9586 </r>
       <r>    -9.3165     5.9772     3.3654 </r>
       <r>    -9.2457     6.5404     3.8088 </r>
       <r>    -9.1749     7.1038     4.2922 </r>
       <r>    -9.1040     8.4808     5.0785 </r>
       <r>    -9.0332     8.3377     5.6739 </r>
       <r>    -8.9623     8.6753     6.2760 </r>
       <r>    -8.8915     8.2322     6.9167 </r>
       <r>    -8.8206     6.2804     7.6133 </r>
       <r>    -8.7498     0.0000     8.0000 </r>
       <r>    -8.6789     0.0000     8.0000 </r>
       <r>    -8.6081     0.0000     8.0000 </r>
       <r>    -8.5372     0.0000     8.0000 </r>
       <r>    -8.4664     0.0000     8.0000 </r>
       <r>    -8.3956     0.0000     8.0000 </r>
       <r>    -8.3247     0.0000     8.0000 </r>
       <r>    -8.2539     0.0000     8.0000 </r>
       <r>    -8.1830     0.0000     8.0000 </r>
       <r>    -8.1122     0.0000     8.0000 </r>
       <r>    -8.0413     0.0000     8.0000 </r>
       <r>    -7.9705     0.0000     8.0000 </r>
       <r>    -7.8996     0.0000     8.0000 </r>
       <r>    -7.8288     0.0000     8.0000 </r>
       <r>    -7.7580     0.0000     8.0000 </r>
       <r>    -7.6871     0.0000     8.0000 </r>
       <r>    -7.6163     0.0000     8.0000 </r>
       <r>    -7.5454     0.0000     8.0000 </r>
       <r>    -7.4746     0.0000     8.0000 </r>
       <r>    -7.4037     0.0000     8.0000 </r>
       <r>    -7.3329     0.0000     8.0000 </r>
       <r>    -7.2620     0.0000     8.0000 </r>
       <r>    -7.1912     0.0000     8.0000 </r>
       <r>    -7.1203     0.0000     8.0000 </r>
       <r>    -7.0495     0.0000     8.0000 </r>
       <r>    -6.9787     0.0000     8.0000 </r>
       <r>    -6.9078     0.0000     8.0000 </r>
       <r>    -6.8370     0.0000     8.0000 </r>
       <r>    -6.7661     0.0000     8.0000 </r>
       <r>    -6.6953     0.0000     8.0000 </r>
       <r>    -6.6244     0.0000     8.0000 </r>
       <r>    -6.5536     0.0000     8.0000 </r>
       <r>    -6.4827     0.0000     8.0000 </r>
       <r>    -6.4119     0.0000     8.0000 </r>
       <r>    -6.3411     0.0000     8.0000 </r>
       <r>    -6.2702     0.0000     8.0000 </r>
       <r>    -6.1994     0.0000     8.0000 </r>
       <r>    -6.1285     0.0000     8.0000 </r>
       <r>    -6.0577     0.0000     8.0000 </r>
       <r>    -5.9868     0.0000     8.0000 </r>
       <r>    -5.9160     0.0000     8.0000 </r>
       <r>    -5.8451     0.0000     8.0000 </r>
       <r>    -5.7743     0.0000     8.0000 </r>
       <r>    -5.7034     0.0000     8.0000 </r>
       <r>    -5.6326     0.0000     8.0000 </r>
       <r>    -5.5618     0.0000     8.0000 </r>
       <r>    -5.4909     0.0000     8.0000 </r>
       <r>    -5.4201     0.0000     8.0000 </r>
       <r>    -5.3492     0.0000     8.0000 </r>
       <r>    -5.2784     0.0000     8.0000 </r>
       <r>    -5.2075     0.0000     8.0000 </r>
       <r>    -5.1367     0.0000     8.0000 </r>
       <r>    -5.0658     0.0000     8.0000 </r>
       <r>    -4.9950     0.0000     8.0000 </r>
       <r>    -4.9242     0.0000     8.0000 </r>
       <r>    -4.8533     0.0000     8.0000 </r>
       <r>    -4.7825     0.0000     8.0000 </r>
       <r>    -4.7116     0.0000     8.0000 </r>
       <r>    -4.6408     0.0000     8.0000 </r>
       <r>    -4.5699     0.0000     8.0000 </r>
       <r>    -4.4991     0.0000     8.0000 </r>
       <r>    -4.4282     0.0000     8.0000 </r>
       <r>    -4.3574     0.0000     8.0000 </r>
       <r>    -4.2865     0.0000     8.0000 </r>
       <r>    -4.2157     0.0000     8.0000 </r>
       <r>    -4.1449     0.0000     8.0000 </r>
       <r>    -4.0740     0.0000     8.0000 </r>
       <r>    -4.0032     0.0000     8.0000 </r>
       <r>    -3.9323     0.0000     8.0000 </r>
       <r>    -3.8615     0.0000     8.0000 </r>
       <r>    -3.7906     0.0000     8.0000 </r>
       <r>    -3.7198     0.0000     8.0000 </r>
       <r>    -3.6489     0.0000     8.0000 </r>
       <r>    -3.5781     0.0000     8.0000 </r>
       <r>    -3.5073     0.0000     8.0000 </r>
       <r>    -3.4364     0.0000     8.0000 </r>
       <r>    -3.3656     0.0000     8.0000 </r>
       <r>    -3.2947     0.0000     8.0000 </r>
       <r>    -3.2239     0.0000     8.0000 </r>
       <r>    -3.1530     0.0000     8.0000 </r>
       <r>    -3.0822     0.0000     8.0000 </r>
       <r>    -3.0113     0.0000     8.0000 </r>
       <r>    -2.9405     0.0000     8.0000 </r>
       <r>    -2.8696     0.0000     8.0000 </r>
       <r>    -2.7988     0.0000     8.0000 </r>
       <r>    -2.7280     0.0000     8.0000 </r>
       <r>    -2.6571     0.0000     8.0000 </r>
       <r>    -2.5863     0.1697     8.0015 </r>
       <r>    -2.5154     1.0498     8.0447 </r>
       <r>    -2.4446     2.0509     8.1533 </r>
       <r>    -2.3737     3.2471     8.3399 </r>
       <r>    -2.3029     5.0689     8.6228 </r>
       <r>    -2.2320     5.5312     8.9999 </r>
       <r>    -2.1612     5.9816     9.4082 </r>
       <r>    -2.0904     7.5385     9.9757 </r>
       <r>    -2.0195     6.4242    10.4703 </r>
       <r>    -1.9487     7.2880    10.8985 </r>
       <r>    -1.8778     8.2675    11.6226 </r>
       <r>    -1.8070     2.1102    11.9699 </r>
       <r>    -1.7361     9.3735    12.5505 </r>
       <r>    -1.6653     4.8164    13.0363 </r>
       <r>    -1.5944     2.6841    13.2588 </r>
       <r>    -1.5236     2.4566    13.4409 </r>
       <r>    -1.4527     2.2294    13.6069 </r>
       <r>    -1.3819     2.0025    13.7568 </r>
       <r>    -1.3111     1.7757    13.8906 </r>
       <r>    -1.2402     1.6704    14.0109 </r>
       <r>    -1.1694     1.6779    14.1295 </r>
       <r>    -1.0985     1.6854    14.2486 </r>
       <r>    -1.0277     1.6930    14.3683 </r>
       <r>    -0.9568     1.7560    14.4887 </r>
       <r>    -0.8860     5.1526    14.7125 </r>
       <r>    -0.8151    10.6513    15.2604 </r>
       <r>    -0.7443    12.1077    16.1454 </r>
       <r>    -0.6735     9.8431    16.8579 </r>
       <r>    -0.6026     8.2320    17.5247 </r>
       <r>    -0.5318     5.0284    17.9946 </r>
       <r>    -0.4609     2.6420    18.2485 </r>
       <r>    -0.3901     2.3754    18.4257 </r>
       <r>    -0.3192     2.2033    18.5876 </r>
       <r>    -0.2484     2.0433    18.7380 </r>
       <r>    -0.1775     1.8836    18.8771 </r>
       <r>    -0.1067     9.5419    19.0887 </r>
       <r>    -0.0358    21.3279    20.4673 </r>
       <r>     0.0350     7.6263    21.2908 </r>
       <r>     0.1058     5.2365    21.7489 </r>
       <r>     0.1767     5.9568    22.2313 </r>
       <r>     0.2475     3.7883    22.5578 </r>
       <r>     0.3184     3.6023    22.8196 </r>
       <r>     0.3892     3.4163    23.0682 </r>
       <r>     0.4601     3.3512    23.3038 </r>
       <r>     0.5309     5.0342    23.6017 </r>
       <r>     0.6018     5.0334    23.9669 </r>
       <r>     0.6726     4.2744    24.3150 </r>
       <r>     0.7434     2.7461    24.5634 </r>
       <r>     0.8143     1.7942    24.7011 </r>
       <r>     0.8851     1.7507    24.8267 </r>
       <r>     0.9560     1.7140    24.9494 </r>
       <r>     1.0268     1.6840    25.0697 </r>
       <r>     1.0977     4.0632    25.2311 </r>
       <r>     1.1685    10.3951    25.7280 </r>
       <r>     1.2394    18.1761    26.7729 </r>
       <r>     1.3102    13.8643    27.9430 </r>
       <r>     1.3811     5.2124    28.6110 </r>
       <r>     1.4519     3.1648    28.8851 </r>
       <r>     1.5227     2.9566    29.0994 </r>
       <r>     1.5936     2.8774    29.3060 </r>
       <r>     1.6644     3.0026    29.5110 </r>
       <r>     1.7353     3.5607    29.7377 </r>
       <r>     1.8061     6.3004    30.0684 </r>
       <r>     1.8770     8.5617    30.6175 </r>
       <r>     1.9478     4.8958    31.1124 </r>
       <r>     2.0187     4.4606    31.4487 </r>
       <r>     2.0895     3.2124    31.7254 </r>
       <r>     2.1603     1.6785    31.8954 </r>
       <r>     2.2312     2.4302    32.0160 </r>
       <r>     2.3020     5.8560    32.2997 </r>
       <r>     2.3729     7.8836    32.8764 </r>
       <r>     2.4437     7.2276    33.4084 </r>
       <r>     2.5146     6.6907    33.9025 </r>
       <r>     2.5854     6.1599    34.3562 </r>
       <r>     2.6563     4.3389    34.7468 </r>
       <r>     2.7271     3.8152    35.0356 </r>
       <r>     2.7980     3.2908    35.2874 </r>
       <r>     2.8688     2.9863    35.5050 </r>
       <r>     2.9396     2.4655    35.7028 </r>
       <r>     3.0105     0.9709    35.8786 </r>
       <r>     3.0813     0.8485    35.9441 </r>
       <r>     3.1522     0.3321    35.9838 </r>
       <r>     3.2230     0.0882    35.9978 </r>
       <r>     3.2939     0.0003    36.0000 </r>
       <r>     3.3647     0.0000    36.0000 </r>
       <r>     3.4356     0.0000    36.0000 </r>
       <r>     3.5064     0.0000    36.0000 </r>
       <r>     3.5772     0.0000    36.0000 </r>
       <r>     3.6481     0.0000    36.0000 </r>
       <r>     3.7189     0.0000    36.0000 </r>
       <r>     3.7898     0.0000    36.0000 </r>
       <r>     3.8606     0.0000    36.0000 </r>
       <r>     3.9315     0.0000    36.0000 </r>
       <r>     4.0023     0.0000    36.0000 </r>
       <r>     4.0732     0.0000    36.0000 </r>
       <r>     4.1440     0.0000    36.0000 </r>
       <r>     4.2149     0.0000    36.0000 </r>
       <r>     4.2857     0.0000    36.0000 </r>
       <r>     4.3565     0.0000    36.0000 </r>
       <r>     4.4274     0.0000    36.0000 </r>
       <r>     4.4982     0.0000    36.0000 </r>
       <r>     4.5691     0.0000    36.0000 </r>
       <r>     4.6399     0.0000    36.0000 </r>
       <r>     4.7108     0.0000    36.0000 </r>
       <r>     4.7816     0.0000    36.0000 </r>
       <r>     4.8525     0.0000    36.0000 </r>
       <r>     4.9233     0.0000    36.0000 </r>
       <r>     4.9941     1.5310    36.1525 </r>
       <r>     5.0650     4.8748    36.3708 </r>
       <r>     5.1358     8.4965    36.8441 </r>
       <r>     5.2067    12.6685    37.5938 </r>
       <r>     5.2775    26.3557    38.6529 </r>
       <r>     5.3484     2.2474    39.4420 </r>
       <r>     5.4192     1.5917    39.5747 </r>
       <r>     5.4901     8.4191    39.8528 </r>
       <r>     5.5609     9.3946    40.6724 </r>
       <r>     5.6318     8.3902    41.3448 </r>
       <r>     5.7026     7.4250    41.8908 </r>
       <r>     5.7734     6.7783    42.3801 </r>
       <r>     5.8443     5.7880    42.9512 </r>
       <r>     5.9151     3.1738    43.2161 </r>
       <r>     5.9860     2.5517    43.4184 </r>
       <r>     6.0568     2.0621    43.5813 </r>
       <r>     6.1277     1.7337    43.7136 </r>
       <r>     6.1985     1.6457    43.8409 </r>
       <r>     6.2694     1.2228    43.9350 </r>
       <r>     6.3402     0.0000    44.0000 </r>
       <r>     6.4110     0.0000    44.0000 </r>
       <r>     6.4819     0.0000    44.0000 </r>
       <r>     6.5527     0.0000    44.0000 </r>
       <r>     6.6236     0.0000    44.0000 </r>
       <r>     6.6944     0.0000    44.0000 </r>
       <r>     6.7653     0.0000    44.0000 </r>
       <r>     6.8361     0.0000    44.0000 </r>
       <r>     6.9070     0.0000    44.0000 </r>
       <r>     6.9778     0.0000    44.0000 </r>
       <r>     7.0487     0.0000    44.0000 </r>
       <r>     7.1195     0.0000    44.0000 </r>
       <r>     7.1903     0.0000    44.0000 </r>
       <r>     7.2612     0.0000    44.0000 </r>
       <r>     7.3320     0.0000    44.0000 </r>
       <r>     7.4029     0.0000    44.0000 </r>
       <r>     7.4737     0.0000    44.0000 </r>
       <r>     7.5446     0.0000    44.0000 </r>
       <r>     7.6154     0.0000    44.0000 </r>
       <r>     7.6863     0.0000    44.0000 </r>
       <r>     7.7571     0.0000    44.0000 </r>
       <r>     7.8279     0.0000    44.0000 </r>
       <r>     7.8988     0.0000    44.0000 </r>
       <r>     7.9696     0.0000    44.0000 </r>
       <r>     8.0405     0.0000    44.0000 </r>
       <r>     8.1113     0.0000    44.0000 </r>
       <r>     8.1822     0.0000    44.0000 </r>
       <r>     8.2530     0.0000    44.0000 </r>
       <r>     8.3239     0.0000    44.0000 </r>
      </set>
     </set>
    </array>
   </total>
  </dos>
 </calculation>
 <structure name="finalpos" >
  <crystal>
   <varray name="basis" >
    <v>       3.19031573       0.00000000       0.00000000 </v>
    <v>      -1.59515786       2.76289447       0.00000000 </v>
    <v>       0.00000000       0.00000000      14.87900430 </v>
   </varray>
   <i name="volume">    131.15106795 </i>
   <varray name="rec_basis" >
    <v>       0.31344860       0.18096963       0.00000000 </v>
    <v>       0.00000000       0.36193927       0.00000000 </v>
    <v>       0.00000000       0.00000000       0.06720880 </v>
   </varray>
  </crystal>
  <varray name="positions" >
   <v>       0.33333300       0.66666700       0.25000000 </v>
   <v>       0.66666700       0.33333300       0.75000000 </v>
   <v>       0.33333300       0.66666700       0.85517400 </v>
   <v>       0.66666700       0.33333300       0.14482600 </v>
   <v>       0.66666600       0.33333300       0.35517400 </v>
   <v>       0.33333400       0.66666700       0.64482600 </v>
  </varray>
 </structure>
</modeling>
