unknown system                          
   1.00000000000000     
     3.190316    0.000000    0.000000
    -1.595158    2.762894    0.000000
     0.000000    0.000000   14.879004
   Mo   S 
     2     4
Direct
  0.333333  0.666667  0.250000
  0.666667  0.333333  0.750000
  0.333333  0.666667  0.855174
  0.666667  0.333333  0.144826
  0.666666  0.333333  0.355174
  0.333334  0.666667  0.644826
 
   40   40  192
 0.39743     0.39990     0.40731     0.41964     0.43688     0.45891     0.48554     0.51646     0.55123     0.58924    
 0.62974     0.67181     0.71436     0.75617     0.79595     0.83237     0.86419     0.89025     0.90960     0.92150    
 0.92552     0.92149     0.90956     0.89019     0.86411     0.83229     0.79585     0.75607     0.71426     0.67172    
 0.62966     0.58916     0.55116     0.51641     0.48549     0.45887     0.43685     0.41962     0.40729     0.39990    
 0.39990     0.39990     0.40484     0.41471     0.42951     0.44917     0.47356     0.50241     0.53535     0.57186    
 0.61127     0.65274     0.69526     0.73768     0.77872     0.81707     0.85142     0.88058     0.90347     0.91923    
 0.92726     0.92725     0.91920     0.90343     0.88053     0.85135     0.81698     0.77862     0.73757     0.69516    
 0.65265     0.61120     0.57180     0.53529     0.50236     0.47352     0.44914     0.42949     0.41470     0.40483    
 0.40730     0.40483     0.40730     0.41471     0.42706     0.44432     0.46641     0.49312     0.52416     0.55906    
 0.59724     0.63795     0.68026     0.72308     0.76519     0.80530     0.84207     0.87422     0.90060     0.92021    
 0.93229     0.93636     0.93227     0.92017     0.90055     0.87416     0.84199     0.80521     0.76509     0.72298    
 0.68016     0.63787     0.59718     0.55900     0.52410     0.49307     0.46637     0.44429     0.42704     0.41470    
 0.41963     0.41470     0.41470     0.41963     0.42951     0.44432     0.46403     0.48851     0.51752     0.55068    
 0.58747     0.62722     0.66909     0.71208     0.75503     0.79668     0.83568     0.87070     0.90048     0.92390    
 0.94007     0.94832     0.94831     0.94004     0.92386     0.90042     0.87062     0.83559     0.79659     0.75495    
 0.71199     0.66901     0.62715     0.58740     0.55062     0.51747     0.48847     0.46399     0.44429     0.42949    
 0.43685     0.42949     0.42705     0.42950     0.43686     0.44916     0.46640     0.48850     0.51532     0.54654    
 0.58172     0.62028     0.66146     0.70434     0.74783     0.79072     0.83169     0.86936     0.90239     0.92956    
 0.94980     0.96230     0.96652     0.96229     0.94978     0.92951     0.90233     0.86928     0.83161     0.79065    
 0.74776     0.70426     0.66139     0.62021     0.58166     0.54648     0.51527     0.48847     0.46637     0.44914    
 0.45887     0.44915     0.44430     0.44430     0.44916     0.45889     0.47354     0.49311     0.51751     0.54653    
 0.57982     0.61688     0.65704     0.69947     0.74314     0.78692     0.82949     0.86950     0.90554     0.93628    
 0.96053     0.97728     0.98585     0.98585     0.97728     0.96050     0.93624     0.90548     0.86943     0.82942    
 0.78684     0.74307     0.69939     0.65697     0.61682     0.57977     0.54648     0.51747     0.49307     0.47351    
 0.48550     0.47352     0.46638     0.46401     0.46639     0.47354     0.48552     0.50239     0.52414     0.55066    
 0.58171     0.61687     0.65559     0.69712     0.74053     0.78474     0.82849     0.87042     0.90911     0.94315    
 0.97121     0.99215      1.0051      1.0095      1.0051     0.99215     0.97119     0.94311     0.90906     0.87036    
 0.82841     0.78466     0.74045     0.69705     0.65553     0.61682     0.58166     0.55062     0.52410     0.50236    
 0.51641     0.50236     0.49309     0.48848     0.48849     0.49310     0.50238     0.51644     0.53533     0.55905    
 0.58745     0.62026     0.65702     0.69710     0.73968     0.78376     0.82814     0.87148     0.91234     0.94926    
 0.98083      1.0058      1.0230      1.0319      1.0319      1.0230      1.0058     0.98081     0.94923     0.91229    
 0.87141     0.82806     0.78369     0.73962     0.69704     0.65697     0.62021     0.58741     0.55900     0.53529    
 0.55116     0.53530     0.52411     0.51748     0.51529     0.51750     0.52413     0.53532     0.55119     0.57184    
 0.59722     0.62720     0.66144     0.69944     0.74050     0.78374     0.82805     0.87214     0.91456     0.95384    
 0.98848      1.0171      1.0385      1.0517      1.0562      1.0517      1.0385      1.0171     0.98845     0.95381    
 0.91451     0.87207     0.82799     0.78369     0.74045     0.69938     0.66139     0.62715     0.59718     0.57179    
 0.58916     0.57180     0.55902     0.55064     0.54650     0.54651     0.55066     0.55903     0.57183     0.58920    
 0.61124     0.63792     0.66906     0.70431     0.74311     0.78470     0.82811     0.87212     0.91535     0.95628    
 0.99339      1.0252      1.0504      1.0678      1.0767      1.0767      1.0678      1.0503      1.0252     0.99337    
 0.95625     0.91530     0.87207     0.82807     0.78466     0.74306     0.70426     0.66902     0.63787     0.61119    
 0.62965     0.61120     0.59719     0.58743     0.58168     0.57980     0.58170     0.58745     0.59722     0.61124    
 0.62970     0.65269     0.68021     0.71204     0.74780     0.78689     0.82846     0.87145     0.91455     0.95628    
 0.99509      1.0294      1.0579      1.0791      1.0923      1.0968      1.0923      1.0791      1.0578      1.0294    
 0.99507     0.95625     0.91450     0.87141     0.82842     0.78684     0.74775     0.71200     0.68017     0.65265    
 0.67171     0.65266     0.63789     0.62717     0.62024     0.61685     0.61686     0.62026     0.62720     0.63792    
 0.65270     0.67176     0.69520     0.72301     0.75498     0.79068     0.82946     0.87039     0.91231     0.95382    
 0.99339      1.0294      1.0604      1.0850      1.1020      1.1108      1.1108      1.1020      1.0850      1.0604    
  1.0294     0.99337     0.95379     0.91228     0.87036     0.82942     0.79064     0.75494     0.72298     0.69517    
 0.71426     0.69517     0.68018     0.66903     0.66141     0.65700     0.65557     0.65702     0.66144     0.66906    
 0.68022     0.69523     0.71431     0.73761     0.76512     0.79662     0.83163     0.86945     0.90908     0.94924    
 0.98846      1.0252      1.0579      1.0850      1.1054      1.1180      1.1222      1.1180      1.1053      1.0850    
  1.0579      1.0252     0.98845     0.94922     0.90906     0.86944     0.83161     0.79658     0.76509     0.73758    
 0.75608     0.73758     0.72298     0.71201     0.70429     0.69941     0.69708     0.69709     0.69944     0.70431    
 0.71205     0.72304     0.73764     0.75612     0.77866     0.80523     0.83561     0.86928     0.90548     0.94311    
 0.98081      1.0171      1.0504      1.0791      1.1021      1.1180      1.1261      1.1261      1.1180      1.1020    
  1.0791      1.0504      1.0171     0.98081     0.94310     0.90549     0.86929     0.83559     0.80520     0.77862    
 0.79586     0.77862     0.76509     0.75496     0.74778     0.74309     0.74049     0.73967     0.74051     0.74312    
 0.74781     0.75501     0.76516     0.77868     0.79590     0.81702     0.84201     0.87062     0.90232     0.93623    
 0.97117      1.0058      1.0385      1.0678      1.0923      1.1108      1.1223      1.1262      1.1223      1.1108    
  1.0923      1.0678      1.0385      1.0058     0.97118     0.93624     0.90234     0.87062     0.84198     0.81698    
 0.83229     0.81699     0.80521     0.79659     0.79066     0.78687     0.78469     0.78373     0.78375     0.78473    
 0.78690     0.79071     0.79666     0.80527     0.81703     0.83233     0.85139     0.87417     0.90041     0.92949    
 0.96048     0.99212      1.0230      1.0517      1.0767      1.0968      1.1108      1.1180      1.1180      1.1108    
  1.0967      1.0767      1.0517      1.0230     0.99214     0.96050     0.92952     0.90042     0.87415     0.85135    
 0.86411     0.85136     0.84199     0.83559     0.83162     0.82945     0.82845     0.82810     0.82804     0.82813    
 0.82849     0.82949     0.83168     0.83566     0.84205     0.85139     0.86415     0.88055     0.90055     0.92384    
 0.94974     0.97724      1.0051      1.0318      1.0562      1.0767      1.0923      1.1020      1.1054      1.1020    
  1.0923      1.0767      1.0562      1.0319      1.0051     0.97726     0.94978     0.92387     0.90055     0.88051    
 0.89018     0.88052     0.87416     0.87062     0.86929     0.86946     0.87039     0.87144     0.87211     0.87213    
 0.87147     0.87043     0.86951     0.86936     0.87070     0.87421     0.88056     0.89022     0.90343     0.92016    
 0.94001     0.96224     0.98580      1.0094      1.0318      1.0517      1.0678      1.0791      1.0850      1.0850    
  1.0791      1.0678      1.0517      1.0319      1.0095     0.98584     0.96228     0.94005     0.92018     0.90342    
 0.90955     0.90342     0.90056     0.90043     0.90234     0.90551     0.90909     0.91232     0.91455     0.91535    
 0.91457     0.91235     0.90913     0.90556     0.90242     0.90049     0.90060     0.90346     0.90957     0.91919    
 0.93224     0.94826     0.96646     0.98579      1.0051      1.0230      1.0385      1.0504      1.0579      1.0604    
  1.0579      1.0504      1.0385      1.0230      1.0051     0.98585     0.96651     0.94831     0.93228     0.91920    
 0.92148     0.91920     0.92018     0.92387     0.92953     0.93626     0.94314     0.94926     0.95385     0.95630    
 0.95631     0.95386     0.94928     0.94318     0.93632     0.92960     0.92394     0.92023     0.91924     0.92149    
 0.92723     0.93633     0.94826     0.96224     0.97722     0.99211      1.0058      1.0171      1.0252      1.0294    
  1.0294      1.0252      1.0171      1.0058     0.99216     0.97728     0.96229     0.94831     0.93637     0.92725    
 0.92552     0.92725     0.93227     0.94005     0.94979     0.96052     0.97122     0.98085     0.98850     0.99343    
 0.99513     0.99343     0.98852     0.98087     0.97125     0.96057     0.94985     0.94011     0.93232     0.92728    
 0.92552     0.92724     0.93225     0.94001     0.94974     0.96047     0.97116     0.98080     0.98846     0.99339    
 0.99509     0.99340     0.98848     0.98083     0.97121     0.96053     0.94980     0.94007     0.93229     0.92726    
 0.92150     0.92726     0.93636     0.94831     0.96229     0.97730     0.99218      1.0058      1.0171      1.0252    
  1.0295      1.0295      1.0252      1.0171      1.0058     0.99221     0.97734     0.96235     0.94837     0.93640    
 0.92727     0.92149     0.91920     0.92016     0.92385     0.92950     0.93623     0.94310     0.94923     0.95382    
 0.95628     0.95629     0.95384     0.94927     0.94315     0.93628     0.92956     0.92391     0.92021     0.91923    
 0.90959     0.91923     0.93229     0.94832     0.96652     0.98587      1.0051      1.0231      1.0385      1.0504    
  1.0579      1.0605      1.0579      1.0504      1.0385      1.0231      1.0052     0.98591     0.96658     0.94836    
 0.93231     0.91923     0.90957     0.90342     0.90054     0.90042     0.90234     0.90549     0.90907     0.91231    
 0.91455     0.91535     0.91456     0.91234     0.90912     0.90554     0.90238     0.90048     0.90061     0.90347    
 0.89024     0.90346     0.92021     0.94008     0.96230     0.98587      1.0095      1.0319      1.0518      1.0679    
  1.0792      1.0851      1.0850      1.0792      1.0679      1.0518      1.0319      1.0096     0.98592     0.96236    
 0.94010     0.92022     0.90347     0.89022     0.88053     0.87416     0.87063     0.86930     0.86945     0.87039    
 0.87145     0.87213     0.87213     0.87147     0.87043     0.86951     0.86935     0.87069     0.87423     0.88059    
 0.86419     0.88058     0.90060     0.92392     0.94981     0.97730      1.0051      1.0319      1.0562      1.0768    
  1.0924      1.1021      1.1054      1.1021      1.0924      1.0768      1.0563      1.0319      1.0052     0.97735    
 0.94985     0.92393     0.90061     0.88058     0.86415     0.85137     0.84200     0.83561     0.83163     0.82945    
 0.82846     0.82812     0.82805     0.82813     0.82849     0.82951     0.83169     0.83567     0.84207     0.85144    
 0.83238     0.85143     0.87423     0.90049     0.92957     0.96054     0.99219      1.0231      1.0518      1.0768    
  1.0968      1.1109      1.1181      1.1180      1.1108      1.0968      1.0768      1.0518      1.0231     0.99222    
 0.96058     0.92959     0.90049     0.87423     0.85141     0.83233     0.81701     0.80524     0.79662     0.79067    
 0.78688     0.78472     0.78375     0.78375     0.78473     0.78693     0.79073     0.79667     0.80529     0.81707    
 0.79596     0.81707     0.84207     0.87070     0.90241     0.93630     0.97124      1.0058      1.0385      1.0679    
  1.0924      1.1108      1.1223      1.1262      1.1223      1.1108      1.0924      1.0679      1.0385      1.0058    
 0.97126     0.93631     0.90240     0.87069     0.84206     0.81704     0.79590     0.77867     0.76514     0.75498    
 0.74779     0.74311     0.74052     0.73969     0.74052     0.74314     0.74785     0.75504     0.76518     0.77872    
 0.75618     0.77872     0.80530     0.83568     0.86937     0.90557     0.94318     0.98087      1.0171      1.0504    
  1.0792      1.1021      1.1181      1.1262      1.1262      1.1180      1.1021      1.0792      1.0504      1.0171    
 0.98088     0.94319     0.90556     0.86935     0.83566     0.80527     0.77868     0.75612     0.73763     0.72303    
 0.71203     0.70430     0.69944     0.69711     0.69711     0.69946     0.70435     0.71209     0.72307     0.73767    
 0.71436     0.73768     0.76519     0.79668     0.83170     0.86953     0.90915     0.94930     0.98853      1.0253    
  1.0579      1.0851      1.1054      1.1181      1.1223      1.1180      1.1054      1.0851      1.0579      1.0252    
 0.98852     0.94930     0.90914     0.86951     0.83168     0.79666     0.76515     0.73763     0.71431     0.69522    
 0.68021     0.66906     0.66144     0.65703     0.65559     0.65703     0.66146     0.66910     0.68025     0.69525    
 0.67180     0.69527     0.72308     0.75504     0.79074     0.82953     0.87046     0.91237     0.95388     0.99345    
  1.0295      1.0605      1.0851      1.1021      1.1108      1.1108      1.1021      1.0851      1.0605      1.0295    
 0.99343     0.95386     0.91235     0.87043     0.82949     0.79072     0.75501     0.72303     0.69521     0.67176    
 0.65270     0.63792     0.62720     0.62027     0.61688     0.61688     0.62028     0.62723     0.63796     0.65274    
 0.62973     0.65275     0.68027     0.71210     0.74786     0.78695     0.82853     0.87151     0.91460     0.95633    
 0.99514      1.0295      1.0579      1.0792      1.0924      1.0968      1.0924      1.0792      1.0579      1.0295    
 0.99512     0.95630     0.91457     0.87147     0.82848     0.78691     0.74783     0.71206     0.68022     0.65270    
 0.62970     0.61123     0.59722     0.58745     0.58172     0.57982     0.58172     0.58747     0.59725     0.61127    
 0.58923     0.61128     0.63797     0.66912     0.70436     0.74317     0.78477     0.82818     0.87218     0.91540    
 0.95634     0.99345      1.0252      1.0504      1.0679      1.0768      1.0768      1.0679      1.0504      1.0252    
 0.99342     0.95630     0.91536     0.87212     0.82811     0.78471     0.74313     0.70432     0.66907     0.63792    
 0.61124     0.58920     0.57183     0.55904     0.55067     0.54653     0.54653     0.55068     0.55907     0.57187    
 0.55123     0.57187     0.59726     0.62724     0.66149     0.69949     0.74056     0.78380     0.82810     0.87218    
 0.91461     0.95389     0.98853      1.0171      1.0385      1.0518      1.0562      1.0518      1.0385      1.0171    
 0.98850     0.95384     0.91456     0.87212     0.82804     0.78373     0.74050     0.69944     0.66144     0.62720    
 0.59722     0.57184     0.55119     0.53532     0.52414     0.51751     0.51532     0.51751     0.52416     0.53535    
 0.51646     0.53536     0.55908     0.58749     0.62031     0.65707     0.69715     0.73973     0.78380     0.82817    
 0.87151     0.91238     0.94931     0.98088      1.0058      1.0231      1.0319      1.0319      1.0231      1.0058    
 0.98085     0.94926     0.91232     0.87145     0.82811     0.78373     0.73966     0.69709     0.65701     0.62025    
 0.58744     0.55904     0.53533     0.51644     0.50239     0.49311     0.48851     0.48851     0.49312     0.50241    
 0.48554     0.50242     0.52417     0.55070     0.58175     0.61691     0.65563     0.69715     0.74056     0.78477    
 0.82852     0.87046     0.90915     0.94318     0.97125     0.99219      1.0051      1.0095      1.0051     0.99218    
 0.97122     0.94314     0.90908     0.87039     0.82845     0.78470     0.74049     0.69709     0.65557     0.61685    
 0.58169     0.55065     0.52413     0.50238     0.48552     0.47354     0.46640     0.46403     0.46641     0.47356    
 0.45891     0.47356     0.49313     0.51754     0.54656     0.57985     0.61691     0.65707     0.69949     0.74318    
 0.78695     0.82952     0.86952     0.90556     0.93630     0.96055     0.97731     0.98587     0.98587     0.97729    
 0.96052     0.93626     0.90551     0.86945     0.82944     0.78686     0.74309     0.69942     0.65701     0.61685    
 0.57980     0.54651     0.51749     0.49310     0.47354     0.45889     0.44916     0.44432     0.44432     0.44918    
 0.43688     0.44918     0.46642     0.48853     0.51534     0.54656     0.58175     0.62031     0.66149     0.70437    
 0.74786     0.79075     0.83170     0.86936     0.90240     0.92957     0.94981     0.96231     0.96653     0.96230    
 0.94979     0.92953     0.90235     0.86930     0.83162     0.79065     0.74777     0.70428     0.66141     0.62024    
 0.58169     0.54651     0.51529     0.48849     0.46639     0.44916     0.43686     0.42950     0.42706     0.42951    
 0.41965     0.42952     0.44433     0.46404     0.48853     0.51753     0.55070     0.58749     0.62724     0.66911    
 0.71210     0.75505     0.79669     0.83569     0.87070     0.90048     0.92391     0.94007     0.94832     0.94831    
 0.94005     0.92387     0.90042     0.87063     0.83561     0.79660     0.75495     0.71201     0.66903     0.62716    
 0.58742     0.55064     0.51749     0.48848     0.46401     0.44431     0.42950     0.41963     0.41471     0.41471    
 0.40731     0.41472     0.42707     0.44433     0.46642     0.49313     0.52417     0.55908     0.59726     0.63796    
 0.68026     0.72308     0.76520     0.80531     0.84208     0.87423     0.90061     0.92021     0.93228     0.93636    
 0.93227     0.92017     0.90055     0.87416     0.84199     0.80521     0.76510     0.72299     0.68018     0.63788    
 0.59718     0.55901     0.52412     0.49309     0.46638     0.44430     0.42705     0.41470     0.40730     0.40484    
 0.39990     0.40484     0.41472     0.42952     0.44918     0.47356     0.50241     0.53536     0.57187     0.61128    
 0.65274     0.69526     0.73767     0.77872     0.81707     0.85143     0.88059     0.90347     0.91923     0.92726    
 0.92725     0.91920     0.90342     0.88051     0.85135     0.81698     0.77862     0.73758     0.69518     0.65266    
 0.61120     0.57180     0.53529     0.50236     0.47352     0.44915     0.42949     0.41470     0.40483     0.39990    
 0.40430     0.40686     0.41453     0.42733     0.44521     0.46809     0.49577     0.52794     0.56412     0.60371    
 0.64592     0.68978     0.73418     0.77784     0.81940     0.85750     0.89081     0.91811     0.93839     0.95087    
 0.95508     0.95085     0.93835     0.91805     0.89073     0.85742     0.81931     0.77774     0.73408     0.68969    
 0.64583     0.60364     0.56406     0.52788     0.49573     0.46805     0.44518     0.42731     0.41452     0.40685    
 0.40685     0.40685     0.41221     0.42293     0.43902     0.46041     0.48698     0.51845     0.55441     0.59431    
 0.63739     0.68276     0.72930     0.77576     0.82076     0.86284     0.90058     0.93263     0.95780     0.97515    
 0.98398     0.98397     0.97512     0.95776     0.93257     0.90051     0.86276     0.82066     0.77566     0.72920    
 0.68266     0.63732     0.59424     0.55436     0.51840     0.48694     0.46038     0.43899     0.42292     0.41220    
 0.41452     0.41173     0.41453     0.42293     0.43695     0.45659     0.48174     0.51221     0.54765     0.58755    
 0.63122     0.67780     0.72624     0.77531     0.82362     0.86966     0.91190     0.94887     0.97922      1.0018    
  1.0157      1.0204      1.0157      1.0017     0.97917     0.94881     0.91182     0.86956     0.82352     0.77521    
 0.72615     0.67772     0.63115     0.58749     0.54760     0.51217     0.48170     0.45656     0.43693     0.42292    
 0.42731     0.42148     0.42148     0.42732     0.43901     0.45658     0.48000     0.50912     0.54368     0.58321    
 0.62710     0.67455     0.72455     0.77592     0.82729     0.87712     0.92383     0.96580      1.0015      1.0296    
  1.0490      1.0589      1.0589      1.0490      1.0296      1.0014     0.96572     0.92374     0.87703     0.82720    
 0.77584     0.72447     0.67448     0.62704     0.58315     0.54362     0.50908     0.47997     0.45656     0.43899    
 0.44518     0.43609     0.43307     0.43610     0.44520     0.46040     0.48173     0.50912     0.54236     0.58110    
 0.62477     0.67264     0.72377     0.77703     0.83108     0.88441     0.93537     0.98226      1.0234      1.0572    
  1.0825      1.0980      1.1033      1.0980      1.0824      1.0572      1.0233     0.98217     0.93528     0.88433    
 0.83100     0.77696     0.72370     0.67257     0.62470     0.58104     0.54232     0.50908     0.48170     0.46038    
 0.46805     0.45552     0.44927     0.44927     0.45553     0.46807     0.48696     0.51220     0.54366     0.58109    
 0.62401     0.67176     0.72349     0.77812     0.83436     0.89073     0.94557     0.99711      1.0436      1.0832    
  1.1145      1.1361      1.1471      1.1471      1.1361      1.1144      1.0832      1.0435     0.99704     0.94549    
 0.89065     0.83428     0.77805     0.72342     0.67170     0.62395     0.58104     0.54363     0.51217     0.48694    
 0.49573     0.47961     0.46999     0.46680     0.47000     0.47962     0.49575     0.51843     0.54764     0.58319    
 0.62475     0.67175     0.72342     0.77877     0.83657     0.89539     0.95358      1.0093      1.0608      1.1061    
  1.1434      1.1713      1.1885      1.1943      1.1885      1.1713      1.1434      1.1060      1.0607      1.0093    
 0.95350     0.89531     0.83649     0.77870     0.72336     0.67170     0.62471     0.58315     0.54760     0.51840    
 0.52788     0.50813     0.49505     0.48855     0.48856     0.49507     0.50815     0.52791     0.55439     0.58753    
 0.62708     0.67262     0.72347     0.77875     0.83734     0.89785     0.95869      1.0180      1.0740      1.1245    
  1.1677      1.2019      1.2255      1.2376      1.2376      1.2255      1.2019      1.1677      1.1245      1.0739    
  1.0180     0.95861     0.89778     0.83727     0.77870     0.72342     0.67257     0.62704     0.58748     0.55435    
 0.56406     0.54072     0.52418     0.51434     0.51108     0.51435     0.52420     0.54074     0.56409     0.59428    
 0.63119     0.67452     0.72375     0.77809     0.83654     0.89783     0.96044      1.0226      1.0823      1.1375    
  1.1862      1.2264      1.2564      1.2750      1.2813      1.2750      1.2564      1.2264      1.1862      1.1375    
  1.0822      1.0225     0.96037     0.89778     0.83649     0.77804     0.72370     0.67448     0.63115     0.59423    
 0.60363     0.57686     0.55696     0.54383     0.53732     0.53733     0.54385     0.55698     0.57688     0.60367    
 0.63735     0.67776     0.72452     0.77700     0.83433     0.89535     0.95866      1.0226      1.0851      1.1442    
  1.1977      1.2435      1.2797      1.3048      1.3177      1.3177      1.3048      1.2797      1.2435      1.1977    
  1.1441      1.0850      1.0225     0.95862     0.89531     0.83428     0.77695     0.72448     0.67772     0.63731    
 0.64583     0.61588     0.59284     0.57659     0.56694     0.56376     0.56696     0.57661     0.59286     0.61591    
 0.64587     0.68270     0.72619     0.77588     0.83105     0.89069     0.95354      1.0180      1.0823      1.1442    
  1.2016      1.2523      1.2942      1.3256      1.3450      1.3515      1.3450      1.3256      1.2942      1.2523    
  1.2016      1.1441      1.0822      1.0180     0.95351     0.89065     0.83100     0.77584     0.72616     0.68267    
 0.68968     0.65696     0.63111     0.61201     0.59946     0.59326     0.59327     0.59949     0.61203     0.63114    
 0.65701     0.68973     0.72924     0.77525     0.82723     0.88436     0.94553      1.0093      1.0740      1.1375    
  1.1977      1.2523      1.2991      1.3362      1.3619      1.3751      1.3751      1.3619      1.3362      1.2991    
  1.2523      1.1977      1.1374      1.0739      1.0093     0.94550     0.88432     0.82719     0.77522     0.72920    
 0.73408     0.69912     0.67090     0.64935     0.63425     0.62533     0.62239     0.62535     0.63427     0.64938    
 0.67095     0.69917     0.73412     0.77569     0.82355     0.87706     0.93530     0.99706      1.0608      1.1245    
  1.1862      1.2435      1.2942      1.3362      1.3677      1.3871      1.3937      1.3871      1.3676      1.3362    
  1.2942      1.2435      1.1862      1.1245      1.0607     0.99705     0.93528     0.87702     0.82351     0.77567    
 0.77774     0.74120     0.71121     0.68773     0.67053     0.65930     0.65379     0.65380     0.65933     0.67055    
 0.68777     0.71127     0.74126     0.77779     0.82070     0.86959     0.92375     0.98218      1.0435      1.1060    
  1.1677      1.2264      1.2797      1.3256      1.3619      1.3871      1.4000      1.4000      1.3871      1.3619    
  1.3256      1.2797      1.2264      1.1677      1.1060      1.0435     0.98218     0.92374     0.86956     0.82067    
 0.81932     0.78196     0.75090     0.72611     0.70738     0.69438     0.68676     0.68427     0.68679     0.69441    
 0.70741     0.72616     0.75096     0.78202     0.81936     0.86279     0.91184     0.96572      1.0233      1.0831    
  1.1434      1.2019      1.2564      1.3048      1.3450      1.3751      1.3937      1.4000      1.3937      1.3751    
  1.3450      1.3048      1.2564      1.2019      1.1434      1.0832      1.0233     0.96572     0.91181     0.86276    
 0.85742     0.82008     0.78872     0.76335     0.74377     0.72961     0.72048     0.71603     0.71605     0.72051    
 0.72964     0.74380     0.76341     0.78878     0.82013     0.85746     0.90054     0.94882      1.0014      1.0572    
  1.1144      1.1712      1.2255      1.2750      1.3177      1.3515      1.3751      1.3871      1.3871      1.3751    
  1.3515      1.3177      1.2750      1.2255      1.1713      1.1144      1.0572      1.0015     0.94880     0.90050    
 0.89073     0.85427     0.82343     0.79825     0.77854     0.76393     0.75396     0.74819     0.74633     0.74823    
 0.75399     0.76397     0.77860     0.79832     0.82348     0.85430     0.89076     0.93259     0.97916      1.0295    
  1.0824      1.1360      1.1885      1.2376      1.2813      1.3177      1.3450      1.3619      1.3677      1.3619    
  1.3450      1.3177      1.2813      1.2376      1.1885      1.1361      1.0824      1.0296     0.97917     0.93256    
 0.91804     0.88329     0.85381     0.82963     0.81055     0.79622     0.78613     0.77976     0.77671     0.77672    
 0.77979     0.78616     0.79627     0.81062     0.82970     0.85386     0.88332     0.91807     0.95776      1.0017    
  1.0489      1.0980      1.1471      1.1943      1.2376      1.2750      1.3048      1.3256      1.3362      1.3362    
  1.3256      1.3048      1.2750      1.2376      1.1943      1.1471      1.0980      1.0490      1.0018     0.95775    
 0.93834     0.90610     0.87875     0.85633     0.83865     0.82534     0.81585     0.80963     0.80614     0.80503    
 0.80616     0.80965     0.81588     0.82539     0.83873     0.85640     0.87879     0.90613     0.93836     0.97510    
  1.0156      1.0588      1.1032      1.1471      1.1884      1.2255      1.2564      1.2797      1.2942      1.2991    
  1.2942      1.2797      1.2564      1.2255      1.1885      1.1471      1.1033      1.0589      1.0157     0.97512    
 0.95085     0.92182     0.89730     0.87735     0.86179     0.85019     0.84203     0.83667     0.83351     0.83207    
 0.83208     0.83352     0.83669     0.84206     0.85025     0.86185     0.87741     0.89734     0.92185     0.95086    
 0.98395      1.0203      1.0588      1.0980      1.1360      1.1712      1.2019      1.2264      1.2435      1.2523    
  1.2523      1.2435      1.2264      1.2019      1.1713      1.1361      1.0980      1.0589      1.0204     0.98398    
 0.95508     0.92984     0.90873     0.89186     0.87903     0.86981     0.86363     0.85982     0.85771     0.85672    
 0.85644     0.85673     0.85772     0.85984     0.86366     0.86986     0.87909     0.89192     0.90878     0.92987    
 0.95508     0.98395      1.0156      1.0489      1.0824      1.1144      1.1433      1.1677      1.1862      1.1977    
  1.2016      1.1977      1.1862      1.1677      1.1434      1.1145      1.0825      1.0490      1.0157     0.98398    