   6   6   0   0
  0.2185851E+02  0.3190316E-09  0.3190316E-09  0.1487900E-08  0.5000000E-15
  1.000000000000000E-004
  CAR 
 unknown system                          
      8.32411627    -12.92980678  301      3.30287695      1.00000000
    -12.930  0.0000E+00  0.0000E+00
    -12.859  0.0000E+00  0.0000E+00
    -12.788  0.0000E+00  0.0000E+00
    -12.717  0.0000E+00  0.0000E+00
    -12.646  0.0000E+00  0.0000E+00
    -12.576  0.0000E+00  0.0000E+00
    -12.505  0.0000E+00  0.0000E+00
    -12.434  0.0000E+00  0.0000E+00
    -12.363  0.0000E+00  0.0000E+00
    -12.292  0.0000E+00  0.0000E+00
    -12.221  0.0000E+00  0.0000E+00
    -12.150  0.0000E+00  0.0000E+00
    -12.080  0.0000E+00  0.0000E+00
    -12.009  0.0000E+00  0.0000E+00
    -11.938  0.0000E+00  0.0000E+00
    -11.867  0.0000E+00  0.0000E+00
    -11.796  0.0000E+00  0.0000E+00
    -11.725  0.0000E+00  0.0000E+00
    -11.655  0.0000E+00  0.0000E+00
    -11.584  0.0000E+00  0.0000E+00
    -11.513  0.0000E+00  0.0000E+00
    -11.442  0.0000E+00  0.0000E+00
    -11.371  0.0000E+00  0.0000E+00
    -11.300  0.0000E+00  0.0000E+00
    -11.229  0.0000E+00  0.0000E+00
    -11.159  0.0000E+00  0.0000E+00
    -11.088  0.0000E+00  0.0000E+00
    -11.017  0.0000E+00  0.0000E+00
    -10.946  0.0000E+00  0.0000E+00
    -10.875  0.3688E+00  0.8440E-02
    -10.804  0.9482E+00  0.5509E-01
    -10.734  0.1528E+01  0.1428E+00
    -10.663  0.9950E+00  0.2299E+00
    -10.592  0.1061E+01  0.3027E+00
    -10.521  0.1126E+01  0.3802E+00
    -10.450  0.1192E+01  0.4623E+00
    -10.379  0.1258E+01  0.5491E+00
    -10.308  0.1319E+01  0.6405E+00
    -10.238  0.1331E+01  0.7344E+00
    -10.167  0.1343E+01  0.8291E+00
    -10.096  0.1380E+01  0.9252E+00
    -10.025  0.1435E+01  0.1025E+01
     -9.954  0.1490E+01  0.1129E+01
     -9.883  0.1545E+01  0.1236E+01
     -9.813  0.1600E+01  0.1348E+01
     -9.742  0.1655E+01  0.1463E+01
     -9.671  0.3337E+01  0.1615E+01
     -9.600  0.4396E+01  0.1929E+01
     -9.529  0.4592E+01  0.2237E+01
     -9.458  0.5088E+01  0.2580E+01
     -9.387  0.5557E+01  0.2959E+01
     -9.317  0.5979E+01  0.3366E+01
     -9.246  0.6543E+01  0.3810E+01
     -9.175  0.7106E+01  0.4293E+01
     -9.104  0.8481E+01  0.5080E+01
     -9.033  0.8339E+01  0.5676E+01
     -8.962  0.8678E+01  0.6278E+01
     -8.892  0.8389E+01  0.6919E+01
     -8.821  0.6271E+01  0.7615E+01
     -8.750  0.0000E+00  0.8000E+01
     -8.679  0.0000E+00  0.8000E+01
     -8.608  0.0000E+00  0.8000E+01
     -8.537  0.0000E+00  0.8000E+01
     -8.466  0.0000E+00  0.8000E+01
     -8.396  0.0000E+00  0.8000E+01
     -8.325  0.0000E+00  0.8000E+01
     -8.254  0.0000E+00  0.8000E+01
     -8.183  0.0000E+00  0.8000E+01
     -8.112  0.0000E+00  0.8000E+01
     -8.041  0.0000E+00  0.8000E+01
     -7.971  0.0000E+00  0.8000E+01
     -7.900  0.0000E+00  0.8000E+01
     -7.829  0.0000E+00  0.8000E+01
     -7.758  0.0000E+00  0.8000E+01
     -7.687  0.0000E+00  0.8000E+01
     -7.616  0.0000E+00  0.8000E+01
     -7.545  0.0000E+00  0.8000E+01
     -7.475  0.0000E+00  0.8000E+01
     -7.404  0.0000E+00  0.8000E+01
     -7.333  0.0000E+00  0.8000E+01
     -7.262  0.0000E+00  0.8000E+01
     -7.191  0.0000E+00  0.8000E+01
     -7.120  0.0000E+00  0.8000E+01
     -7.050  0.0000E+00  0.8000E+01
     -6.979  0.0000E+00  0.8000E+01
     -6.908  0.0000E+00  0.8000E+01
     -6.837  0.0000E+00  0.8000E+01
     -6.766  0.0000E+00  0.8000E+01
     -6.695  0.0000E+00  0.8000E+01
     -6.624  0.0000E+00  0.8000E+01
     -6.554  0.0000E+00  0.8000E+01
     -6.483  0.0000E+00  0.8000E+01
     -6.412  0.0000E+00  0.8000E+01
     -6.341  0.0000E+00  0.8000E+01
     -6.270  0.0000E+00  0.8000E+01
     -6.199  0.0000E+00  0.8000E+01
     -6.129  0.0000E+00  0.8000E+01
     -6.058  0.0000E+00  0.8000E+01
     -5.987  0.0000E+00  0.8000E+01
     -5.916  0.0000E+00  0.8000E+01
     -5.845  0.0000E+00  0.8000E+01
     -5.774  0.0000E+00  0.8000E+01
     -5.703  0.0000E+00  0.8000E+01
     -5.633  0.0000E+00  0.8000E+01
     -5.562  0.0000E+00  0.8000E+01
     -5.491  0.0000E+00  0.8000E+01
     -5.420  0.0000E+00  0.8000E+01
     -5.349  0.0000E+00  0.8000E+01
     -5.278  0.0000E+00  0.8000E+01
     -5.208  0.0000E+00  0.8000E+01
     -5.137  0.0000E+00  0.8000E+01
     -5.066  0.0000E+00  0.8000E+01
     -4.995  0.0000E+00  0.8000E+01
     -4.924  0.0000E+00  0.8000E+01
     -4.853  0.0000E+00  0.8000E+01
     -4.782  0.0000E+00  0.8000E+01
     -4.712  0.0000E+00  0.8000E+01
     -4.641  0.0000E+00  0.8000E+01
     -4.570  0.0000E+00  0.8000E+01
     -4.499  0.0000E+00  0.8000E+01
     -4.428  0.0000E+00  0.8000E+01
     -4.357  0.0000E+00  0.8000E+01
     -4.287  0.0000E+00  0.8000E+01
     -4.216  0.0000E+00  0.8000E+01
     -4.145  0.0000E+00  0.8000E+01
     -4.074  0.0000E+00  0.8000E+01
     -4.003  0.0000E+00  0.8000E+01
     -3.932  0.0000E+00  0.8000E+01
     -3.861  0.0000E+00  0.8000E+01
     -3.791  0.0000E+00  0.8000E+01
     -3.720  0.0000E+00  0.8000E+01
     -3.649  0.0000E+00  0.8000E+01
     -3.578  0.0000E+00  0.8000E+01
     -3.507  0.0000E+00  0.8000E+01
     -3.436  0.0000E+00  0.8000E+01
     -3.366  0.0000E+00  0.8000E+01
     -3.295  0.0000E+00  0.8000E+01
     -3.224  0.0000E+00  0.8000E+01
     -3.153  0.0000E+00  0.8000E+01
     -3.082  0.0000E+00  0.8000E+01
     -3.011  0.0000E+00  0.8000E+01
     -2.940  0.0000E+00  0.8000E+01
     -2.870  0.0000E+00  0.8000E+01
     -2.799  0.0000E+00  0.8000E+01
     -2.728  0.0000E+00  0.8000E+01
     -2.657  0.0000E+00  0.8000E+01
     -2.586  0.1776E+00  0.8002E+01
     -2.515  0.1058E+01  0.8045E+01
     -2.445  0.2061E+01  0.8155E+01
     -2.374  0.3258E+01  0.8342E+01
     -2.303  0.5093E+01  0.8626E+01
     -2.232  0.5537E+01  0.9004E+01
     -2.161  0.5986E+01  0.9412E+01
     -2.090  0.7526E+01  0.9981E+01
     -2.019  0.6413E+01  0.1047E+02
     -1.949  0.7403E+01  0.1090E+02
     -1.878  0.8197E+01  0.1163E+02
     -1.807  0.2062E+01  0.1197E+02
     -1.736  0.9301E+01  0.1256E+02
     -1.665  0.4755E+01  0.1304E+02
     -1.594  0.2682E+01  0.1326E+02
     -1.524  0.2454E+01  0.1344E+02
     -1.453  0.2227E+01  0.1361E+02
     -1.382  0.2000E+01  0.1376E+02
     -1.311  0.1774E+01  0.1389E+02
     -1.240  0.1670E+01  0.1401E+02
     -1.169  0.1678E+01  0.1413E+02
     -1.098  0.1685E+01  0.1425E+02
     -1.028  0.1693E+01  0.1437E+02
     -0.957  0.1762E+01  0.1449E+02
     -0.886  0.5194E+01  0.1472E+02
     -0.815  0.1069E+02  0.1527E+02
     -0.744  0.1209E+02  0.1615E+02
     -0.673  0.9841E+01  0.1686E+02
     -0.603  0.8206E+01  0.1753E+02
     -0.532  0.5002E+01  0.1800E+02
     -0.461  0.2640E+01  0.1825E+02
     -0.390  0.2374E+01  0.1843E+02
     -0.319  0.2202E+01  0.1859E+02
     -0.248  0.2042E+01  0.1874E+02
     -0.177  0.1882E+01  0.1888E+02
     -0.107  0.1383E+02  0.1910E+02
     -0.036  0.2133E+02  0.2048E+02
      0.035  0.7601E+01  0.2130E+02
      0.106  0.5210E+01  0.2175E+02
      0.177  0.5930E+01  0.2224E+02
      0.248  0.3786E+01  0.2256E+02
      0.318  0.3600E+01  0.2282E+02
      0.389  0.3414E+01  0.2307E+02
      0.460  0.3370E+01  0.2331E+02
      0.531  0.5060E+01  0.2361E+02
      0.602  0.5035E+01  0.2397E+02
      0.673  0.4252E+01  0.2432E+02
      0.744  0.2730E+01  0.2457E+02
      0.814  0.1793E+01  0.2470E+02
      0.885  0.1750E+01  0.2483E+02
      0.956  0.1714E+01  0.2495E+02
      1.027  0.1684E+01  0.2507E+02
      1.098  0.4150E+01  0.2523E+02
      1.169  0.1047E+02  0.2574E+02
      1.239  0.1813E+02  0.2679E+02
      1.310  0.1379E+02  0.2795E+02
      1.381  0.5170E+01  0.2861E+02
      1.452  0.3162E+01  0.2889E+02
      1.523  0.2956E+01  0.2910E+02
      1.594  0.2877E+01  0.2931E+02
      1.665  0.3006E+01  0.2951E+02
      1.735  0.3574E+01  0.2974E+02
      1.806  0.6342E+01  0.3007E+02
      1.877  0.8566E+01  0.3062E+02
      1.948  0.4895E+01  0.3112E+02
      2.019  0.4452E+01  0.3145E+02
      2.090  0.3196E+01  0.3173E+02
      2.160  0.1668E+01  0.3190E+02
      2.231  0.2442E+01  0.3202E+02
      2.302  0.5889E+01  0.3230E+02
      2.373  0.7877E+01  0.3288E+02
      2.444  0.7225E+01  0.3341E+02
      2.515  0.6688E+01  0.3391E+02
      2.586  0.6160E+01  0.3436E+02
      2.656  0.4334E+01  0.3475E+02
      2.727  0.3811E+01  0.3504E+02
      2.798  0.3286E+01  0.3529E+02
      2.869  0.2983E+01  0.3551E+02
      2.940  0.2461E+01  0.3570E+02
      3.011  0.9709E+00  0.3588E+02
      3.081  0.8478E+00  0.3594E+02
      3.152  0.3310E+00  0.3598E+02
      3.223  0.8766E-01  0.3600E+02
      3.294  0.2839E-03  0.3600E+02
      3.365  0.0000E+00  0.3600E+02
      3.436  0.0000E+00  0.3600E+02
      3.507  0.0000E+00  0.3600E+02
      3.577  0.0000E+00  0.3600E+02
      3.648  0.0000E+00  0.3600E+02
      3.719  0.0000E+00  0.3600E+02
      3.790  0.0000E+00  0.3600E+02
      3.861  0.0000E+00  0.3600E+02
      3.932  0.0000E+00  0.3600E+02
      4.002  0.0000E+00  0.3600E+02
      4.073  0.0000E+00  0.3600E+02
      4.144  0.0000E+00  0.3600E+02
      4.215  0.0000E+00  0.3600E+02
      4.286  0.0000E+00  0.3600E+02
      4.357  0.0000E+00  0.3600E+02
      4.428  0.0000E+00  0.3600E+02
      4.498  0.0000E+00  0.3600E+02
      4.569  0.0000E+00  0.3600E+02
      4.640  0.0000E+00  0.3600E+02
      4.711  0.0000E+00  0.3600E+02
      4.782  0.0000E+00  0.3600E+02
      4.853  0.0000E+00  0.3600E+02
      4.923  0.0000E+00  0.3600E+02
      4.994  0.1532E+01  0.3615E+02
      5.065  0.4884E+01  0.3637E+02
      5.136  0.8510E+01  0.3685E+02
      5.207  0.1270E+02  0.3760E+02
      5.278  0.2647E+02  0.3866E+02
      5.349  0.2238E+01  0.3945E+02
      5.419  0.1582E+01  0.3958E+02
      5.490  0.7951E+01  0.3984E+02
      5.561  0.7598E+01  0.4059E+02
      5.632  0.7565E+01  0.4114E+02
      5.703  0.7783E+01  0.4168E+02
      5.774  0.7394E+01  0.4222E+02
      5.844  0.6477E+01  0.4283E+02
      5.915  0.3786E+01  0.4314E+02
      5.986  0.3079E+01  0.4339E+02
      6.057  0.2468E+01  0.4358E+02
      6.128  0.1808E+01  0.4373E+02
      6.199  0.1756E+01  0.4387E+02
      6.270  0.1021E+01  0.4396E+02
      6.340  0.0000E+00  0.4400E+02
      6.411  0.0000E+00  0.4400E+02
      6.482  0.0000E+00  0.4400E+02
      6.553  0.0000E+00  0.4400E+02
      6.624  0.0000E+00  0.4400E+02
      6.695  0.0000E+00  0.4400E+02
      6.765  0.0000E+00  0.4400E+02
      6.836  0.0000E+00  0.4400E+02
      6.907  0.0000E+00  0.4400E+02
      6.978  0.0000E+00  0.4400E+02
      7.049  0.0000E+00  0.4400E+02
      7.120  0.0000E+00  0.4400E+02
      7.191  0.0000E+00  0.4400E+02
      7.261  0.0000E+00  0.4400E+02
      7.332  0.0000E+00  0.4400E+02
      7.403  0.0000E+00  0.4400E+02
      7.474  0.0000E+00  0.4400E+02
      7.545  0.0000E+00  0.4400E+02
      7.616  0.0000E+00  0.4400E+02
      7.686  0.0000E+00  0.4400E+02
      7.757  0.0000E+00  0.4400E+02
      7.828  0.0000E+00  0.4400E+02
      7.899  0.0000E+00  0.4400E+02
      7.970  0.0000E+00  0.4400E+02
      8.041  0.0000E+00  0.4400E+02
      8.112  0.0000E+00  0.4400E+02
      8.182  0.0000E+00  0.4400E+02
      8.253  0.0000E+00  0.4400E+02
      8.324  0.0000E+00  0.4400E+02
