<?xml version="1.0" encoding="ISO-8859-1"?>
<modeling>
 <generator>
  <i name="program" type="string">vasp </i>
  <i name="version" type="string">5.4.4.18Apr17-6-g9f103f2a35  </i>
  <i name="subversion" type="string">(build Jun 30 2017 11:15:00) complex            parallel </i>
  <i name="platform" type="string">STALLO_VASP_5.4.4 </i>
  <i name="date" type="string">2019 11 08 </i>
  <i name="time" type="string">11:38:06 </i>
 </generator>
 <incar>
  <i type="string" name="PREC">normal    ! low/normal/accurate</i>
  <i type="string" name="ALGO"> Fast      ! Algorithm for electronic re</i>
  <i type="int" name="ISPIN">     1</i>
  <i type="int" name="NELMIN">     4</i>
  <i name="EDIFF">      0.00001000</i>
  <i type="int" name="NSW">     0</i>
  <i name="ENCUT">    650.00000000</i>
  <i type="logical" name="LREAL"> F  </i>
  <i type="int" name="ISMEAR">    -5</i>
  <i name="SIGMA">      0.20000000</i>
  <i type="logical" name="LWAVE"> F  </i>
  <v type="int" name="KPOINT_BSE">    -1     0     0     0</v>
 </incar>
 <structure name="primitive_cell" >
  <crystal>
   <varray name="basis" >
    <v>       3.19031573       0.00000000       0.00000000 </v>
    <v>      -1.59515786       2.76289447       0.00000000 </v>
    <v>       0.00000000       0.00000000      14.87900430 </v>
   </varray>
   <i name="volume">    131.15106795 </i>
   <varray name="rec_basis" >
    <v>       0.31344860       0.18096963       0.00000000 </v>
    <v>       0.00000000       0.36193927       0.00000000 </v>
    <v>       0.00000000       0.00000000       0.06720880 </v>
   </varray>
  </crystal>
  <varray name="positions" >
   <v>       0.33333300      -0.33333300       0.25000000 </v>
   <v>      -0.33333400       0.33333300       0.35517400 </v>
   <v>      -0.33333300       0.33333300       0.14482600 </v>
   <v>       0.33333300      -0.33333300      -0.14482600 </v>
   <v>       0.33333400      -0.33333300      -0.35517400 </v>
   <v>      -0.33333300       0.33333300      -0.25000000 </v>
  </varray>
 </structure>
 <varray name="primitive_index" >
  <v type="int" >        1 </v>
  <v type="int" >        5 </v>
  <v type="int" >        4 </v>
  <v type="int" >        3 </v>
  <v type="int" >        6 </v>
  <v type="int" >        2 </v>
 </varray>
 <kpoints>
  <generation param="Gamma">
   <v type="int" name="divisions">       8        8        2 </v>
   <v name="usershift">      0.00000000       0.00000000       0.00000000 </v>
   <v name="genvec1">      0.12500000       0.00000000       0.00000000 </v>
   <v name="genvec2">      0.00000000       0.12500000       0.00000000 </v>
   <v name="genvec3">      0.00000000       0.00000000       0.50000000 </v>
   <v name="shift">      0.00000000       0.00000000       0.00000000 </v>
  </generation>
  <varray name="kpointlist" >
   <v>       0.00000000       0.00000000       0.00000000 </v>
   <v>       0.12500000      -0.00000000       0.00000000 </v>
   <v>       0.25000000      -0.00000000       0.00000000 </v>
   <v>       0.37500000      -0.00000000       0.00000000 </v>
   <v>       0.50000000      -0.00000000       0.00000000 </v>
   <v>       0.12500000       0.12500000       0.00000000 </v>
   <v>       0.25000000       0.12500000       0.00000000 </v>
   <v>       0.37500000       0.12500000       0.00000000 </v>
   <v>       0.25000000       0.25000000       0.00000000 </v>
   <v>       0.37500000       0.25000000       0.00000000 </v>
   <v>       0.00000000       0.00000000       0.50000000 </v>
   <v>       0.12500000      -0.00000000       0.50000000 </v>
   <v>       0.25000000      -0.00000000       0.50000000 </v>
   <v>       0.37500000      -0.00000000       0.50000000 </v>
   <v>       0.50000000      -0.00000000       0.50000000 </v>
   <v>       0.12500000       0.12500000       0.50000000 </v>
   <v>       0.25000000       0.12500000       0.50000000 </v>
   <v>       0.37500000       0.12500000       0.50000000 </v>
   <v>       0.25000000       0.25000000       0.50000000 </v>
   <v>       0.37500000       0.25000000       0.50000000 </v>
  </varray>
  <varray name="weights" >
   <v>       0.00781250 </v>
   <v>       0.04687500 </v>
   <v>       0.04687500 </v>
   <v>       0.04687500 </v>
   <v>       0.02343750 </v>
   <v>       0.04687500 </v>
   <v>       0.09375000 </v>
   <v>       0.09375000 </v>
   <v>       0.04687500 </v>
   <v>       0.04687500 </v>
   <v>       0.00781250 </v>
   <v>       0.04687500 </v>
   <v>       0.04687500 </v>
   <v>       0.04687500 </v>
   <v>       0.02343750 </v>
   <v>       0.04687500 </v>
   <v>       0.09375000 </v>
   <v>       0.09375000 </v>
   <v>       0.04687500 </v>
   <v>       0.04687500 </v>
  </varray>
  <varray name="tetrahedronlist"  type="int" >
   <v type="int" >        8        2        2        6       12 </v>
   <v type="int" >        8        1        2        2       12 </v>
   <v type="int" >        4        1        2       11       12 </v>
   <v type="int" >        4        2        6       12       16 </v>
   <v type="int" >        8        2       12       12       16 </v>
   <v type="int" >        8        2       11       12       12 </v>
   <v type="int" >        8        3        6        7       16 </v>
   <v type="int" >        8        2        3        6       16 </v>
   <v type="int" >        4        2        3       12       16 </v>
   <v type="int" >        4        3        7       16       17 </v>
   <v type="int" >        8        3       13       16       17 </v>
   <v type="int" >        8        3       12       13       16 </v>
   <v type="int" >        8        4        7        8       17 </v>
   <v type="int" >        8        3        4        7       17 </v>
   <v type="int" >        4        3        4       13       17 </v>
   <v type="int" >        4        4        8       17       18 </v>
   <v type="int" >        8        4       14       17       18 </v>
   <v type="int" >        8        4       13       14       17 </v>
   <v type="int" >        8        5        8        8       18 </v>
   <v type="int" >        8        4        5        8       18 </v>
   <v type="int" >        4        4        5       14       18 </v>
   <v type="int" >        4        5        8       18       18 </v>
   <v type="int" >        4        5       15       18       18 </v>
   <v type="int" >        8        5       14       15       18 </v>
   <v type="int" >        8        4        7        8       18 </v>
   <v type="int" >        4        4        5       15       18 </v>
   <v type="int" >        4        4        7       17       18 </v>
   <v type="int" >        8        4       14       15       18 </v>
   <v type="int" >        8        3        6        7       17 </v>
   <v type="int" >        4        3        4       14       17 </v>
   <v type="int" >        4        3        6       16       17 </v>
   <v type="int" >        8        3       13       14       17 </v>
   <v type="int" >        4        2        2        6       16 </v>
   <v type="int" >        4        2        3       13       16 </v>
   <v type="int" >        4        2        2       12       16 </v>
   <v type="int" >        8        2       12       13       16 </v>
   <v type="int" >        4        1        2       12       12 </v>
   <v type="int" >        4        1       11       12       12 </v>
   <v type="int" >        8        3        6        7       13 </v>
   <v type="int" >        8        2        3        6       13 </v>
   <v type="int" >        4        2        6       12       13 </v>
   <v type="int" >        4        6        7       13       17 </v>
   <v type="int" >        8        6       13       16       17 </v>
   <v type="int" >        8        6       12       13       16 </v>
   <v type="int" >        8        7        7        9       17 </v>
   <v type="int" >        8        6        7        7       17 </v>
   <v type="int" >        4        6        7       16       17 </v>
   <v type="int" >        4        7        9       17       19 </v>
   <v type="int" >        8        7       17       17       19 </v>
   <v type="int" >        8        7       16       17       17 </v>
   <v type="int" >        8        8        9       10       19 </v>
   <v type="int" >        8        7        8        9       19 </v>
   <v type="int" >        4        7        8       17       19 </v>
   <v type="int" >        4        8       10       19       20 </v>
   <v type="int" >        8        8       18       19       20 </v>
   <v type="int" >        8        8       17       18       19 </v>
   <v type="int" >        8        8        9       10       20 </v>
   <v type="int" >        4        8        8       10       20 </v>
   <v type="int" >        4        8        8       18       20 </v>
   <v type="int" >        4        8        9       19       20 </v>
   <v type="int" >        8        8       18       18       20 </v>
   <v type="int" >        4        7        7        9       19 </v>
   <v type="int" >        4        7        8       18       19 </v>
   <v type="int" >        4        7        7       17       19 </v>
   <v type="int" >        8        7       17       18       19 </v>
   <v type="int" >        4        6        7       17       17 </v>
   <v type="int" >        4        3        6       13       17 </v>
   <v type="int" >        4        6       16       17       17 </v>
   <v type="int" >        4        2        6       13       16 </v>
   <v type="int" >        8        4        7        8       14 </v>
   <v type="int" >        8        3        4        7       14 </v>
   <v type="int" >        4        3        7       13       14 </v>
   <v type="int" >        4        7        8       14       18 </v>
   <v type="int" >        8        7       14       17       18 </v>
   <v type="int" >        8        7       13       14       17 </v>
   <v type="int" >        8        8        9       10       18 </v>
   <v type="int" >        8        7        8        9       18 </v>
   <v type="int" >        4        7        9       17       18 </v>
   <v type="int" >        4        9       10       18       20 </v>
   <v type="int" >        8        9       18       19       20 </v>
   <v type="int" >        8        9       17       18       19 </v>
   <v type="int" >        4       10       10       10       20 </v>
   <v type="int" >        8        9       10       10       20 </v>
   <v type="int" >        4        9       10       19       20 </v>
   <v type="int" >        4       10       10       20       20 </v>
   <v type="int" >        4       10       20       20       20 </v>
   <v type="int" >        8       10       19       20       20 </v>
   <v type="int" >        4        9       10       20       20 </v>
   <v type="int" >        4        8        9       18       20 </v>
   <v type="int" >        4        9       19       20       20 </v>
   <v type="int" >        4        7        9       18       19 </v>
   <v type="int" >        4        4        7       14       18 </v>
   <v type="int" >        4        3        7       14       17 </v>
   <v type="int" >        4        5        8        8       15 </v>
   <v type="int" >        8        4        5        8       15 </v>
   <v type="int" >        4        4        8       14       15 </v>
   <v type="int" >        4        8        8       15       18 </v>
   <v type="int" >        8        8       15       18       18 </v>
   <v type="int" >        8        8       14       15       18 </v>
   <v type="int" >        8        8        8       10       18 </v>
   <v type="int" >        4        8       10       18       18 </v>
   <v type="int" >        4        9       10       18       19 </v>
   <v type="int" >        8       10       18       19       20 </v>
   <v type="int" >        4       10       18       18       20 </v>
   <v type="int" >        4        9       10       10       19 </v>
   <v type="int" >        4       10       10       19       20 </v>
   <v type="int" >        4        8       10       18       19 </v>
   <v type="int" >        4        8       10       18       20 </v>
   <v type="int" >        4        5        8       15       18 </v>
   <v type="int" >        4        4        8       15       18 </v>
   <v type="int" >        8        4        5        8       14 </v>
   <v type="int" >        4        5        8       14       15 </v>
   <v type="int" >        4        7        8       14       17 </v>
   <v type="int" >        8        8       14       17       18 </v>
   <v type="int" >        8        7        8        9       17 </v>
   <v type="int" >        4        8        9       17       18 </v>
   <v type="int" >        4        7        9       17       17 </v>
   <v type="int" >        4        9       17       17       19 </v>
   <v type="int" >        4        8        9       17       19 </v>
   <v type="int" >        4        4        8       14       17 </v>
   <v type="int" >        4        5        8       14       18 </v>
   <v type="int" >        8        3        4        7       13 </v>
   <v type="int" >        4        4        7       13       14 </v>
   <v type="int" >        4        6        7       13       16 </v>
   <v type="int" >        8        7       13       16       17 </v>
   <v type="int" >        4        6        7        7       16 </v>
   <v type="int" >        4        7        7       16       17 </v>
   <v type="int" >        4        3        7       13       16 </v>
   <v type="int" >        4        4        7       13       17 </v>
   <v type="int" >        8        2        3        6       12 </v>
   <v type="int" >        4        3        6       12       13 </v>
   <v type="int" >        4        2        6       12       12 </v>
   <v type="int" >        4        6       12       12       16 </v>
   <v type="int" >        4        3        6       12       16 </v>
   <v type="int" >        4        1        2        2       11 </v>
   <v type="int" >        4        2        2       11       12 </v>
  </varray>
  <i name="volumeweight">      0.00130208 </i>
 </kpoints>
 <parameters>
  <separator name="general" >
   <i type="string" name="SYSTEM">unknown system</i>
   <i type="logical" name="LCOMPAT"> F  </i>
  </separator>
  <separator name="electronic" >
   <i type="string" name="PREC">normal</i>
   <i name="ENMAX">    650.00000000</i>
   <i name="ENAUG">    345.27800000</i>
   <i name="EDIFF">      0.00001000</i>
   <i type="int" name="IALGO">    68</i>
   <i type="int" name="IWAVPR">    10</i>
   <i type="int" name="NBANDS">    22</i>
   <i name="NELECT">     36.00000000</i>
   <i type="int" name="TURBO">     0</i>
   <i type="int" name="IRESTART">     0</i>
   <i type="int" name="NREBOOT">     0</i>
   <i type="int" name="NMIN">     0</i>
   <i name="EREF">      0.00000000</i>
   <separator name="electronic smearing" >
    <i type="int" name="ISMEAR">    -5</i>
    <i name="SIGMA">      0.20000000</i>
    <i name="KSPACING">      0.50000000</i>
    <i type="logical" name="KGAMMA"> T  </i>
   </separator>
   <separator name="electronic projectors" >
    <i type="logical" name="LREAL"> F  </i>
    <v name="ROPT">      0.00000000      0.00000000</v>
    <i type="int" name="LMAXPAW">  -100</i>
    <i type="int" name="LMAXMIX">     2</i>
    <i type="logical" name="NLSPLINE"> F  </i>
   </separator>
   <separator name="electronic startup" >
    <i type="int" name="ISTART">     0</i>
    <i type="int" name="ICHARG">     2</i>
    <i type="int" name="INIWAV">     1</i>
   </separator>
   <separator name="electronic spin" >
    <i type="int" name="ISPIN">     1</i>
    <i type="logical" name="LNONCOLLINEAR"> F  </i>
    <v name="MAGMOM">      1.00000000      1.00000000      1.00000000      1.00000000      1.00000000      1.00000000</v>
    <i name="NUPDOWN">     -1.00000000</i>
    <i type="logical" name="LSORBIT"> F  </i>
    <v name="SAXIS">      0.00000000      0.00000000      1.00000000</v>
    <i type="logical" name="LSPIRAL"> F  </i>
    <v name="QSPIRAL">      0.00000000      0.00000000      0.00000000</v>
    <i type="logical" name="LZEROZ"> F  </i>
   </separator>
   <separator name="electronic exchange-correlation" >
    <i type="logical" name="LASPH"> F  </i>
    <i type="logical" name="LMETAGGA"> F  </i>
   </separator>
   <separator name="electronic convergence" >
    <i type="int" name="NELM">    60</i>
    <i type="int" name="NELMDL">     0</i>
    <i type="int" name="NELMIN">     4</i>
    <i name="ENINI">    650.00000000</i>
    <separator name="electronic convergence detail" >
     <i type="logical" name="LDIAG"> T  </i>
     <i type="logical" name="LSUBROT"> F  </i>
     <i name="WEIMIN">      0.00000000</i>
     <i name="EBREAK">      0.00000011</i>
     <i name="DEPER">      0.30000000</i>
     <i type="int" name="NRMM">     4</i>
     <i name="TIME">      0.40000000</i>
    </separator>
   </separator>
   <separator name="electronic mixer" >
    <i name="AMIX">      0.40000000</i>
    <i name="BMIX">      1.00000000</i>
    <i name="AMIN">      0.10000000</i>
    <i name="AMIX_MAG">      1.60000000</i>
    <i name="BMIX_MAG">      1.00000000</i>
    <separator name="electronic mixer details" >
     <i type="int" name="IMIX">     4</i>
     <i type="logical" name="MIXFIRST"> F  </i>
     <i type="int" name="MAXMIX">   -45</i>
     <i name="WC">    100.00000000</i>
     <i type="int" name="INIMIX">     1</i>
     <i type="int" name="MIXPRE">     1</i>
     <i type="int" name="MREMOVE">     5</i>
    </separator>
   </separator>
   <separator name="electronic dipolcorrection" >
    <i type="logical" name="LDIPOL"> F  </i>
    <i type="logical" name="LMONO"> F  </i>
    <i type="int" name="IDIPOL">     0</i>
    <i name="EPSILON">      1.00000000</i>
    <v name="DIPOL">   -100.00000000   -100.00000000   -100.00000000</v>
    <i name="EFIELD">      0.00000000</i>
   </separator>
  </separator>
  <separator name="grids" >
   <i type="int" name="NGX">    20</i>
   <i type="int" name="NGY">    20</i>
   <i type="int" name="NGZ">    96</i>
   <i type="int" name="NGXF">    40</i>
   <i type="int" name="NGYF">    40</i>
   <i type="int" name="NGZF">   192</i>
   <i type="logical" name="ADDGRID"> F  </i>
  </separator>
  <separator name="ionic" >
   <i type="int" name="NSW">     0</i>
   <i type="int" name="IBRION">    -1</i>
   <i type="int" name="MDALGO">     0</i>
   <i type="int" name="ISIF">     2</i>
   <i name="PSTRESS">      0.00000000</i>
   <i name="EDIFFG">      0.00010000</i>
   <i type="int" name="NFREE">     0</i>
   <i name="POTIM">      0.50000000</i>
   <i name="SMASS">     -3.00000000</i>
   <i name="SCALEE">      1.00000000</i>
  </separator>
  <separator name="ionic md" >
   <i name="TEBEG">      0.00010000</i>
   <i name="TEEND">      0.00010000</i>
   <i type="int" name="NBLOCK">     1</i>
   <i type="int" name="KBLOCK">     1</i>
   <i type="int" name="NPACO">   256</i>
   <i name="APACO">     16.00000000</i>
  </separator>
  <separator name="symmetry" >
   <i type="int" name="ISYM">     2</i>
   <i name="SYMPREC">      0.00001000</i>
  </separator>
  <separator name="dos" >
   <i type="int" name="LORBIT">     0</i>
   <v name="RWIGS">     -1.00000000     -1.00000000</v>
   <i type="int" name="NEDOS">   301</i>
   <i name="EMIN">     10.00000000</i>
   <i name="EMAX">    -10.00000000</i>
   <i name="EFERMI">      0.00000000</i>
  </separator>
  <separator name="writing" >
   <i type="int" name="NWRITE">     2</i>
   <i type="logical" name="LWAVE"> F  </i>
   <i type="logical" name="LDOWNSAMPLE"> F  </i>
   <i type="logical" name="LCHARG"> T  </i>
   <i type="logical" name="LPARD"> F  </i>
   <i type="logical" name="LVTOT"> F  </i>
   <i type="logical" name="LVHAR"> F  </i>
   <i type="logical" name="LELF"> F  </i>
   <i type="logical" name="LOPTICS"> F  </i>
   <v name="STM">      0.00000000      0.00000000      0.00000000      0.00000000      0.00000000      0.00000000      0.00000000</v>
  </separator>
  <separator name="performance" >
   <i type="int" name="NPAR">     2</i>
   <i type="int" name="NSIM">     4</i>
   <i type="int" name="NBLK">    -1</i>
   <i type="logical" name="LPLANE"> T  </i>
   <i type="logical" name="LSCALAPACK"> T  </i>
   <i type="logical" name="LSCAAWARE"> F  </i>
   <i type="logical" name="LSCALU"> F  </i>
   <i type="logical" name="LASYNC"> F  </i>
   <i type="logical" name="LORBITALREAL"> F  </i>
  </separator>
  <separator name="miscellaneous" >
   <i type="int" name="IDIOT">     3</i>
   <i type="int" name="ISPECIAL">     0</i>
   <i type="logical" name="LMUSIC"> F  </i>
   <v name="POMASS">     95.94000000     32.06600000</v>
   <v name="DARWINR">      0.00000000      0.00000000</v>
   <v name="DARWINV">      1.00000000      1.00000000</v>
   <i type="logical" name="LCORR"> T  </i>
  </separator>
  <i type="logical" name="GGA_COMPAT"> T  </i>
  <i type="logical" name="LBERRY"> F  </i>
  <i type="int" name="ICORELEVEL">     0</i>
  <i type="logical" name="LDAU"> F  </i>
  <i type="int" name="I_CONSTRAINED_M">     0</i>
  <separator name="electronic exchange-correlation" >
   <i type="string" name="GGA">--</i>
   <i type="int" name="VOSKOWN">     0</i>
   <i type="logical" name="LHFCALC"> F  </i>
   <i type="string" name="PRECFOCK"></i>
   <i type="logical" name="LSYMGRAD"> F  </i>
   <i type="logical" name="LHFONE"> F  </i>
   <i type="logical" name="LRHFCALC"> F  </i>
   <i type="logical" name="LTHOMAS"> F  </i>
   <i type="logical" name="LMODELHF"> F  </i>
   <i name="ENCUT4O">     -1.00000000</i>
   <i type="int" name="EXXOEP">     0</i>
   <i type="int" name="FOURORBIT">     0</i>
   <i name="AEXX">      0.00000000</i>
   <i name="HFALPHA">      0.00000000</i>
   <i name="MCALPHA">      0.00000000</i>
   <i name="ALDAX">      1.00000000</i>
   <i name="AGGAX">      1.00000000</i>
   <i name="ALDAC">      1.00000000</i>
   <i name="AGGAC">      1.00000000</i>
   <i type="int" name="NKREDX">     1</i>
   <i type="int" name="NKREDY">     1</i>
   <i type="int" name="NKREDZ">     1</i>
   <i type="logical" name="SHIFTRED"> F  </i>
   <i type="logical" name="ODDONLY"> F  </i>
   <i type="logical" name="EVENONLY"> F  </i>
   <i type="int" name="LMAXFOCK">     0</i>
   <i type="int" name="NMAXFOCKAE">     0</i>
   <i type="logical" name="LFOCKAEDFT"> F  </i>
   <i name="HFSCREEN">      0.00000000</i>
   <i name="HFSCREENC">      0.00000000</i>
   <i type="int" name="NBANDSGWLOW">     0</i>
  </separator>
  <separator name="vdW DFT" >
   <i type="logical" name="LUSE_VDW"> F  </i>
   <i name="Zab_VDW">     -0.84910000</i>
   <i name="PARAM1">      0.12340000</i>
   <i name="PARAM2">      1.00000000</i>
   <i name="PARAM3">      0.00000000</i>
  </separator>
  <separator name="model GW" >
   <i type="int" name="MODEL_GW">     0</i>
   <i name="MODEL_EPS0">     13.11510680</i>
   <i name="MODEL_ALPHA">      1.00000000</i>
  </separator>
  <separator name="linear response parameters" >
   <i type="logical" name="LEPSILON"> F  </i>
   <i type="logical" name="LRPA"> F  </i>
   <i type="logical" name="LNABLA"> F  </i>
   <i type="logical" name="LVEL"> F  </i>
   <i type="int" name="KINTER">     0</i>
   <i name="CSHIFT">      0.10000000</i>
   <i name="OMEGAMAX">     -1.00000000</i>
   <i name="DEG_THRESHOLD">      0.00200000</i>
   <i name="RTIME">     -0.10000000</i>
   <i name="WPLASMAI">      0.00000000</i>
   <v name="DFIELD">      0.00000000      0.00000000      0.00000000</v>
   <v name="WPLASMA">      0.00000000      0.00000000      0.00000000      0.00000000      0.00000000      0.00000000      0.00000000      0.00000000      0.00000000</v>
  </separator>
  <separator name="orbital magnetization" >
   <i type="logical" name="NUCIND"> F  </i>
   <v name="MAGPOS">      0.00000000      0.00000000      0.00000000</v>
   <i type="logical" name="LNICSALL"> T  </i>
   <i type="logical" name="ORBITALMAG"> F  </i>
   <i type="logical" name="LMAGBLOCH"> F  </i>
   <i type="logical" name="LCHIMAG"> F  </i>
   <i type="logical" name="LGAUGE"> T  </i>
   <i type="int" name="MAGATOM">     0</i>
   <v name="MAGDIPOL">      0.00000000      0.00000000      0.00000000</v>
   <v name="AVECCONST">      0.00000000      0.00000000      0.00000000</v>
  </separator>
  <separator name="response functions" >
   <i type="logical" name="LADDER"> F  </i>
   <i type="logical" name="LRPAFORCE"> F  </i>
   <i type="logical" name="LFXC"> F  </i>
   <i type="logical" name="LHARTREE"> T  </i>
   <i type="int" name="IBSE">     0</i>
   <v type="int" name="KPOINT">    -1     0     0     0</v>
   <i type="logical" name="LTCTE"> F  </i>
   <i type="logical" name="LTETE"> F  </i>
   <i type="logical" name="LTRIPLET"> F  </i>
   <i type="logical" name="LFXCEPS"> F  </i>
   <i type="logical" name="LFXHEG"> F  </i>
   <i type="int" name="NATURALO">     2</i>
   <i type="logical" name="L2ORDER"> F  </i>
   <i type="logical" name="LMP2LT"> F  </i>
   <i type="logical" name="LUSEW"> F  </i>
   <i name="ENCUTGW">     -2.00000000</i>
   <i name="ENCUTGWSOFT">     -2.00000000</i>
   <i name="ENCUTLF">     -1.00000000</i>
   <i type="int" name="LMAXMP2">    -1</i>
   <i name="SCISSOR">      0.00000000</i>
   <i type="int" name="NOMEGA">     0</i>
   <i type="int" name="NOMEGAR">     0</i>
   <i type="int" name="NBANDSGW">    -1</i>
   <i type="int" name="NBANDSO">    -1</i>
   <i type="int" name="NBANDSV">    -1</i>
   <i type="int" name="NELM">     1</i>
   <i type="int" name="NELMHF">     1</i>
   <i type="int" name="DIM">     3</i>
   <i type="int" name="ANTIRES">     0</i>
   <i name="OMEGAMAX">    -30.00000000</i>
   <i name="OMEGAMIN">    -30.00000000</i>
   <i name="OMEGATL">   -200.00000000</i>
   <i type="int" name="OMEGAGRID">   140</i>
   <i name="CSHIFT">     -0.10000000</i>
   <i type="logical" name="SELFENERGY"> F  </i>
   <i type="logical" name="LSPECTRAL"> F  </i>
   <i type="logical" name="LSPECTRALGW"> F  </i>
   <i type="logical" name="LSINGLES"> F  </i>
   <i type="logical" name="LFERMIGW"> F  </i>
   <i type="logical" name="ODDONLYGW"> F  </i>
   <i type="logical" name="EVENONLYGW"> F  </i>
   <i type="int" name="NKREDLFX">     1</i>
   <i type="int" name="NKREDLFY">     1</i>
   <i type="int" name="NKREDLFZ">     1</i>
   <i type="int" name="MAXMEM">  2800</i>
   <i type="int" name="TELESCOPE">     0</i>
   <i type="int" name="TAUPAR">     1</i>
   <i type="int" name="OMEGAPAR">    -1</i>
   <i name="LAMBDA">      1.00000000</i>
  </separator>
  <separator name="External order field" >
   <i name="OFIELD_KAPPA">      0.00000000</i>
   <v name="OFIELD_K">      0.00000000      0.00000000      0.00000000</v>
   <i name="OFIELD_Q6_NEAR">      0.00000000</i>
   <i name="OFIELD_Q6_FAR">      0.00000000</i>
   <i name="OFIELD_A">      0.00000000</i>
  </separator>
 </parameters>
 <atominfo>
  <atoms>       6 </atoms>
  <types>       2 </types>
  <array name="atoms" >
   <dimension dim="1">ion</dimension>
   <field type="string">element</field>
   <field type="int">atomtype</field>
   <set>
    <rc><c>Mo</c><c>   1</c></rc>
    <rc><c>Mo</c><c>   1</c></rc>
    <rc><c>S </c><c>   2</c></rc>
    <rc><c>S </c><c>   2</c></rc>
    <rc><c>S </c><c>   2</c></rc>
    <rc><c>S </c><c>   2</c></rc>
   </set>
  </array>
  <array name="atomtypes" >
   <dimension dim="1">type</dimension>
   <field type="int">atomspertype</field>
   <field type="string">element</field>
   <field>mass</field>
   <field>valence</field>
   <field type="string">pseudopotential</field>
   <set>
    <rc><c>   2</c><c>Mo</c><c>     95.94000000</c><c>      6.00000000</c><c> PAW_PBE Mo 08Apr2002                   </c></rc>
    <rc><c>   4</c><c>S </c><c>     32.06600000</c><c>      6.00000000</c><c>  PAW_PBE S 17Jan2003                   </c></rc>
   </set>
  </array>
 </atominfo>
 <structure name="initialpos" >
  <crystal>
   <varray name="basis" >
    <v>       3.19031573       0.00000000       0.00000000 </v>
    <v>      -1.59515786       2.76289447       0.00000000 </v>
    <v>       0.00000000       0.00000000      14.87900430 </v>
   </varray>
   <i name="volume">    131.15106795 </i>
   <varray name="rec_basis" >
    <v>       0.31344860       0.18096963       0.00000000 </v>
    <v>       0.00000000       0.36193927       0.00000000 </v>
    <v>       0.00000000       0.00000000       0.06720880 </v>
   </varray>
  </crystal>
  <varray name="positions" >
   <v>       0.33333300       0.66666700       0.25000000 </v>
   <v>       0.66666700       0.33333300       0.75000000 </v>
   <v>       0.33333300       0.66666700       0.85517400 </v>
   <v>       0.66666700       0.33333300       0.14482600 </v>
   <v>       0.66666600       0.33333300       0.35517400 </v>
   <v>       0.33333400       0.66666700       0.64482600 </v>
  </varray>
 </structure>
 <calculation>
  <scstep>
   <time name="dav">    0.70    0.71</time>
   <time name="total">    0.76    0.78</time>
   <energy>
    <i name="alphaZ">     90.42577596 </i>
    <i name="ewald">  -1146.88905665 </i>
    <i name="hartreedc">   -535.10238363 </i>
    <i name="XCdc">    -72.59367896 </i>
    <i name="pawpsdc">    813.77302396 </i>
    <i name="pawaedc">   -658.68146406 </i>
    <i name="eentropy">      0.00000000 </i>
    <i name="bandstr">    211.22253338 </i>
    <i name="atom">   1542.32389470 </i>
    <i name="e_fr_energy">    244.47864471 </i>
    <i name="e_wo_entrp">    244.47864471 </i>
    <i name="e_0_energy">    244.47864471 </i>
   </energy>
  </scstep>
  <scstep>
   <time name="dav">    0.86    0.86</time>
   <time name="total">    0.86    0.86</time>
   <energy>
    <i name="e_fr_energy">    -21.66305758 </i>
    <i name="e_wo_entrp">    -21.66305758 </i>
    <i name="e_0_energy">    -21.66305758 </i>
   </energy>
  </scstep>
  <scstep>
   <time name="dav">    0.87    0.87</time>
   <time name="total">    0.87    0.87</time>
   <energy>
    <i name="e_fr_energy">    -46.03641258 </i>
    <i name="e_wo_entrp">    -46.03641258 </i>
    <i name="e_0_energy">    -46.03641258 </i>
   </energy>
  </scstep>
  <scstep>
   <time name="dav">    0.88    0.88</time>
   <time name="total">    0.88    0.88</time>
   <energy>
    <i name="e_fr_energy">    -46.80036959 </i>
    <i name="e_wo_entrp">    -46.80036959 </i>
    <i name="e_0_energy">    -46.80036959 </i>
   </energy>
  </scstep>
  <scstep>
   <time name="dav">    0.89    0.89</time>
   <time name="total">    0.94    0.94</time>
   <energy>
    <i name="e_fr_energy">    -46.82436414 </i>
    <i name="e_wo_entrp">    -46.82436414 </i>
    <i name="e_0_energy">    -46.82436414 </i>
   </energy>
  </scstep>
  <scstep>
   <time name="diag">    0.13    0.13</time>
   <time name="diis">    0.60    0.60</time>
   <time name="orth">    0.02    0.02</time>
   <time name="total">    0.85    0.85</time>
   <energy>
    <i name="e_fr_energy">    -44.44109781 </i>
    <i name="e_wo_entrp">    -44.44109781 </i>
    <i name="e_0_energy">    -44.44109781 </i>
   </energy>
  </scstep>
  <scstep>
   <time name="diag">    0.13    0.13</time>
   <time name="diis">    0.59    0.59</time>
   <time name="orth">    0.02    0.02</time>
   <time name="total">    0.83    0.83</time>
   <energy>
    <i name="e_fr_energy">    -43.69892093 </i>
    <i name="e_wo_entrp">    -43.69892093 </i>
    <i name="e_0_energy">    -43.69892093 </i>
   </energy>
  </scstep>
  <scstep>
   <time name="diag">    0.13    0.13</time>
   <time name="diis">    0.62    0.62</time>
   <time name="orth">    0.02    0.02</time>
   <time name="total">    0.87    0.87</time>
   <energy>
    <i name="e_fr_energy">    -43.63909515 </i>
    <i name="e_wo_entrp">    -43.63909515 </i>
    <i name="e_0_energy">    -43.63909515 </i>
   </energy>
  </scstep>
  <scstep>
   <time name="diag">    0.13    0.13</time>
   <time name="diis">    0.64    0.64</time>
   <time name="orth">    0.01    0.02</time>
   <time name="total">    0.88    0.88</time>
   <energy>
    <i name="e_fr_energy">    -43.62805955 </i>
    <i name="e_wo_entrp">    -43.62805955 </i>
    <i name="e_0_energy">    -43.62805955 </i>
   </energy>
  </scstep>
  <scstep>
   <time name="diag">    0.13    0.13</time>
   <time name="diis">    0.64    0.64</time>
   <time name="orth">    0.02    0.02</time>
   <time name="total">    0.89    0.89</time>
   <energy>
    <i name="e_fr_energy">    -43.61021350 </i>
    <i name="e_wo_entrp">    -43.61021350 </i>
    <i name="e_0_energy">    -43.61021350 </i>
   </energy>
  </scstep>
  <scstep>
   <time name="diag">    0.13    0.13</time>
   <time name="diis">    0.67    0.67</time>
   <time name="orth">    0.02    0.02</time>
   <time name="total">    0.92    0.92</time>
   <energy>
    <i name="e_fr_energy">    -43.61014813 </i>
    <i name="e_wo_entrp">    -43.61014813 </i>
    <i name="e_0_energy">    -43.61014813 </i>
   </energy>
  </scstep>
  <scstep>
   <time name="diag">    0.13    0.13</time>
   <time name="diis">    0.68    0.68</time>
   <time name="orth">    0.02    0.02</time>
   <time name="total">    0.93    0.93</time>
   <energy>
    <i name="e_fr_energy">    -43.61029754 </i>
    <i name="e_wo_entrp">    -43.61029754 </i>
    <i name="e_0_energy">    -43.61029754 </i>
   </energy>
  </scstep>
  <scstep>
   <time name="diag">    0.13    0.13</time>
   <time name="diis">    0.68    0.68</time>
   <time name="orth">    0.02    0.02</time>
   <time name="total">    0.92    0.92</time>
   <energy>
    <i name="e_fr_energy">    -43.61029947 </i>
    <i name="e_wo_entrp">    -43.61029947 </i>
    <i name="e_0_energy">    -43.61029947 </i>
   </energy>
  </scstep>
  <scstep>
   <time name="diag">    0.13    0.13</time>
   <time name="diis">    0.49    0.49</time>
   <time name="orth">    0.02    0.02</time>
   <time name="total">    0.68    0.69</time>
   <energy>
    <i name="alphaZ">     90.42577596 </i>
    <i name="ewald">  -1146.88905665 </i>
    <i name="hartreedc">   -542.95858445 </i>
    <i name="XCdc">    -70.38612392 </i>
    <i name="pawpsdc">    943.60944193 </i>
    <i name="pawaedc">   -791.99236114 </i>
    <i name="eentropy">      0.00000000 </i>
    <i name="bandstr">    -67.74327911 </i>
    <i name="atom">   1542.32389470 </i>
    <i name="e_fr_energy">    -43.61029268 </i>
    <i name="e_wo_entrp">    -43.61029268 </i>
    <i name="e_0_energy">    -43.61029268 </i>
   </energy>
  </scstep>
  <structure>
   <crystal>
    <varray name="basis" >
     <v>       3.19031573       0.00000000       0.00000000 </v>
     <v>      -1.59515786       2.76289447       0.00000000 </v>
     <v>       0.00000000       0.00000000      14.87900430 </v>
    </varray>
    <i name="volume">    131.15106795 </i>
    <varray name="rec_basis" >
     <v>       0.31344860       0.18096963       0.00000000 </v>
     <v>       0.00000000       0.36193927       0.00000000 </v>
     <v>       0.00000000       0.00000000       0.06720880 </v>
    </varray>
   </crystal>
   <varray name="positions" >
    <v>       0.33333300       0.66666700       0.25000000 </v>
    <v>       0.66666700       0.33333300       0.75000000 </v>
    <v>       0.33333300       0.66666700       0.85517400 </v>
    <v>       0.66666700       0.33333300       0.14482600 </v>
    <v>       0.66666600       0.33333300       0.35517400 </v>
    <v>       0.33333400       0.66666700       0.64482600 </v>
   </varray>
  </structure>
  <varray name="forces" >
   <v>       0.00000000      -0.00000000       0.00000000 </v>
   <v>       0.00000000      -0.00000000       0.00000000 </v>
   <v>      -0.00000000       0.00000000      -0.08323862 </v>
   <v>      -0.00000000      -0.00000000       0.08323862 </v>
   <v>       0.00000000      -0.00000000      -0.08323862 </v>
   <v>       0.00000000       0.00000000       0.08323862 </v>
  </varray>
  <varray name="stress" >
   <v>      -4.56706139       0.00000000      -0.00000000 </v>
   <v>      -0.00000000      -4.56706139       0.00000000 </v>
   <v>       0.00000000       0.00000000     -16.07908914 </v>
  </varray>
  <energy>
   <i name="e_fr_energy">    -44.94157970 </i>
   <i name="e_wo_entrp">    -44.94157970 </i>
   <i name="e_0_energy">      0.00000000 </i>
  </energy>
  <time name="totalsc">   13.75   13.88</time>
  <eigenvalues>
   <array>
    <dimension dim="1">band</dimension>
    <dimension dim="2">kpoint</dimension>
    <dimension dim="3">spin</dimension>
    <field>eigene</field>
    <field>occ</field>
    <set>
     <set comment="spin 1">
      <set comment="kpoint 1">
       <r>  -10.9298    1.0000 </r>
       <r>  -10.9108    1.0000 </r>
       <r>   -9.7293    1.0000 </r>
       <r>   -9.6953    1.0000 </r>
       <r>   -2.5237    1.0000 </r>
       <r>   -2.3622    1.0000 </r>
       <r>    0.5193    1.0000 </r>
       <r>    0.5194    1.0000 </r>
       <r>    0.5199    1.0000 </r>
       <r>    0.5199    1.0000 </r>
       <r>    1.1059    1.0000 </r>
       <r>    1.6243    1.0000 </r>
       <r>    1.6243    1.0000 </r>
       <r>    1.6263    1.0000 </r>
       <r>    1.6263    1.0000 </r>
       <r>    1.6742    1.0000 </r>
       <r>    2.9225    1.0000 </r>
       <r>    3.2983    1.0000 </r>
       <r>    5.8794    0.0000 </r>
       <r>    5.9030    0.0000 </r>
       <r>    5.9447    0.0000 </r>
       <r>    6.0808    0.0000 </r>
      </set>
      <set comment="kpoint 2">
       <r>  -10.7155    1.0000 </r>
       <r>  -10.6969    1.0000 </r>
       <r>   -9.6256    1.0000 </r>
       <r>   -9.5942    1.0000 </r>
       <r>   -2.2779    1.0000 </r>
       <r>   -2.1190    1.0000 </r>
       <r>    0.0549    1.0000 </r>
       <r>    0.0576    1.0000 </r>
       <r>    0.4563    1.0000 </r>
       <r>    0.6724    1.0000 </r>
       <r>    0.7534    1.0000 </r>
       <r>    0.7547    1.0000 </r>
       <r>    1.2883    1.0000 </r>
       <r>    1.2909    1.0000 </r>
       <r>    1.9303    1.0000 </r>
       <r>    2.2142    1.0000 </r>
       <r>    2.8434    1.0000 </r>
       <r>    3.0854    1.0000 </r>
       <r>    5.5155    0.0000 </r>
       <r>    5.6771    0.0000 </r>
       <r>    5.7232    0.0000 </r>
       <r>    5.8189    0.0000 </r>
      </set>
      <set comment="kpoint 3">
       <r>  -10.1458    1.0000 </r>
       <r>  -10.1291    1.0000 </r>
       <r>   -9.3533    1.0000 </r>
       <r>   -9.3289    1.0000 </r>
       <r>   -1.8880    1.0000 </r>
       <r>   -1.7772    1.0000 </r>
       <r>   -0.6918    1.0000 </r>
       <r>   -0.6482    1.0000 </r>
       <r>   -0.4615    1.0000 </r>
       <r>   -0.3601    1.0000 </r>
       <r>    0.6528    1.0000 </r>
       <r>    0.6563    1.0000 </r>
       <r>    1.3394    1.0000 </r>
       <r>    1.3429    1.0000 </r>
       <r>    1.7039    1.0000 </r>
       <r>    1.9126    1.0000 </r>
       <r>    2.3697    1.0000 </r>
       <r>    2.4182    1.0000 </r>
       <r>    5.1197    0.0000 </r>
       <r>    5.4384    0.0000 </r>
       <r>    5.4466    0.0000 </r>
       <r>    5.4586    0.0000 </r>
      </set>
      <set comment="kpoint 4">
       <r>   -9.4683    1.0000 </r>
       <r>   -9.4564    1.0000 </r>
       <r>   -9.0398    1.0000 </r>
       <r>   -9.0255    1.0000 </r>
       <r>   -2.2856    1.0000 </r>
       <r>   -2.2509    1.0000 </r>
       <r>   -1.2978    1.0000 </r>
       <r>   -1.2548    1.0000 </r>
       <r>   -0.8467    1.0000 </r>
       <r>   -0.7617    1.0000 </r>
       <r>    0.1552    1.0000 </r>
       <r>    0.1592    1.0000 </r>
       <r>    1.3418    1.0000 </r>
       <r>    1.4494    1.0000 </r>
       <r>    1.9274    1.0000 </r>
       <r>    1.9360    1.0000 </r>
       <r>    2.1733    1.0000 </r>
       <r>    2.2240    1.0000 </r>
       <r>    5.2593    0.0000 </r>
       <r>    5.2684    0.0000 </r>
       <r>    5.4544    0.0000 </r>
       <r>    5.6329    0.0000 </r>
      </set>
      <set comment="kpoint 5">
       <r>   -9.1373    1.0000 </r>
       <r>   -9.1308    1.0000 </r>
       <r>   -8.8926    1.0000 </r>
       <r>   -8.8861    1.0000 </r>
       <r>   -2.6139    1.0000 </r>
       <r>   -2.5870    1.0000 </r>
       <r>   -1.6531    1.0000 </r>
       <r>   -1.6286    1.0000 </r>
       <r>   -0.9685    1.0000 </r>
       <r>   -0.8926    1.0000 </r>
       <r>   -0.0254    1.0000 </r>
       <r>   -0.0213    1.0000 </r>
       <r>    1.2465    1.0000 </r>
       <r>    1.2659    1.0000 </r>
       <r>    2.1528    1.0000 </r>
       <r>    2.1649    1.0000 </r>
       <r>    2.4769    1.0000 </r>
       <r>    2.4808    1.0000 </r>
       <r>    5.2843    0.0000 </r>
       <r>    5.2880    0.0000 </r>
       <r>    5.7742    0.0000 </r>
       <r>    5.8294    0.0000 </r>
      </set>
      <set comment="kpoint 6">
       <r>  -10.3221    1.0000 </r>
       <r>  -10.3046    1.0000 </r>
       <r>   -9.4362    1.0000 </r>
       <r>   -9.4095    1.0000 </r>
       <r>   -1.9212    1.0000 </r>
       <r>   -1.7814    1.0000 </r>
       <r>   -0.5139    1.0000 </r>
       <r>   -0.5013    1.0000 </r>
       <r>   -0.0654    1.0000 </r>
       <r>    0.0767    1.0000 </r>
       <r>    0.4636    1.0000 </r>
       <r>    0.4898    1.0000 </r>
       <r>    1.0927    1.0000 </r>
       <r>    1.0944    1.0000 </r>
       <r>    2.0955    1.0000 </r>
       <r>    2.2979    1.0000 </r>
       <r>    2.5520    1.0000 </r>
       <r>    2.6276    1.0000 </r>
       <r>    5.0620    0.0000 </r>
       <r>    5.3257    0.0000 </r>
       <r>    5.5284    0.0000 </r>
       <r>    5.5916    0.0000 </r>
      </set>
      <set comment="kpoint 7">
       <r>   -9.6868    1.0000 </r>
       <r>   -9.6728    1.0000 </r>
       <r>   -9.1334    1.0000 </r>
       <r>   -9.1152    1.0000 </r>
       <r>   -1.9398    1.0000 </r>
       <r>   -1.8868    1.0000 </r>
       <r>   -0.9514    1.0000 </r>
       <r>   -0.9202    1.0000 </r>
       <r>   -0.7086    1.0000 </r>
       <r>   -0.6351    1.0000 </r>
       <r>   -0.0669    1.0000 </r>
       <r>    0.0078    1.0000 </r>
       <r>    1.1901    1.0000 </r>
       <r>    1.1959    1.0000 </r>
       <r>    1.7870    1.0000 </r>
       <r>    1.8734    1.0000 </r>
       <r>    2.3022    1.0000 </r>
       <r>    2.3120    1.0000 </r>
       <r>    4.9960    0.0000 </r>
       <r>    5.2138    0.0000 </r>
       <r>    5.5307    0.0000 </r>
       <r>    6.0028    0.0000 </r>
      </set>
      <set comment="kpoint 8">
       <r>   -9.1532    1.0000 </r>
       <r>   -9.1455    1.0000 </r>
       <r>   -8.8845    1.0000 </r>
       <r>   -8.8762    1.0000 </r>
       <r>   -2.3267    1.0000 </r>
       <r>   -2.2998    1.0000 </r>
       <r>   -1.7025    1.0000 </r>
       <r>   -1.6933    1.0000 </r>
       <r>   -0.8381    1.0000 </r>
       <r>   -0.7675    1.0000 </r>
       <r>   -0.0675    1.0000 </r>
       <r>   -0.0251    1.0000 </r>
       <r>    1.1997    1.0000 </r>
       <r>    1.2160    1.0000 </r>
       <r>    1.3282    1.0000 </r>
       <r>    1.3665    1.0000 </r>
       <r>    2.6245    1.0000 </r>
       <r>    2.6428    1.0000 </r>
       <r>    5.2706    0.0000 </r>
       <r>    5.3348    0.0000 </r>
       <r>    5.7792    0.0000 </r>
       <r>    5.8564    0.0000 </r>
      </set>
      <set comment="kpoint 9">
       <r>   -9.1686    1.0000 </r>
       <r>   -9.1599    1.0000 </r>
       <r>   -8.8763    1.0000 </r>
       <r>   -8.8664    1.0000 </r>
       <r>   -1.9674    1.0000 </r>
       <r>   -1.9389    1.0000 </r>
       <r>   -1.7539    1.0000 </r>
       <r>   -1.7427    1.0000 </r>
       <r>   -0.4882    1.0000 </r>
       <r>   -0.4638    1.0000 </r>
       <r>   -0.1394    1.0000 </r>
       <r>   -0.0512    1.0000 </r>
       <r>    0.2145    1.0000 </r>
       <r>    0.2371    1.0000 </r>
       <r>    1.4761    1.0000 </r>
       <r>    1.4868    1.0000 </r>
       <r>    2.6005    1.0000 </r>
       <r>    2.6102    1.0000 </r>
       <r>    5.1856    0.0000 </r>
       <r>    5.3135    0.0000 </r>
       <r>    5.9388    0.0000 </r>
       <r>    6.1090    0.0000 </r>
      </set>
      <set comment="kpoint 10">
       <r>   -8.9309    1.0000 </r>
       <r>   -8.9278    1.0000 </r>
       <r>   -8.7538    1.0000 </r>
       <r>   -8.7506    1.0000 </r>
       <r>   -2.1381    1.0000 </r>
       <r>   -2.1273    1.0000 </r>
       <r>   -1.7920    1.0000 </r>
       <r>   -1.7758    1.0000 </r>
       <r>   -0.7782    1.0000 </r>
       <r>   -0.7410    1.0000 </r>
       <r>   -0.1072    1.0000 </r>
       <r>   -0.0863    1.0000 </r>
       <r>    0.1067    1.0000 </r>
       <r>    0.1577    1.0000 </r>
       <r>    1.0756    1.0000 </r>
       <r>    1.1155    1.0000 </r>
       <r>    2.9620    1.0000 </r>
       <r>    2.9832    1.0000 </r>
       <r>    4.9236    0.0000 </r>
       <r>    4.9326    0.0000 </r>
       <r>    6.1552    0.0000 </r>
       <r>    6.3241    0.0000 </r>
      </set>
      <set comment="kpoint 11">
       <r>  -10.9204    1.0000 </r>
       <r>  -10.9204    1.0000 </r>
       <r>   -9.7122    1.0000 </r>
       <r>   -9.7122    1.0000 </r>
       <r>   -2.4457    1.0000 </r>
       <r>   -2.4457    1.0000 </r>
       <r>    0.5196    1.0000 </r>
       <r>    0.5196    1.0000 </r>
       <r>    0.5196    1.0000 </r>
       <r>    0.5196    1.0000 </r>
       <r>    1.3626    1.0000 </r>
       <r>    1.3626    1.0000 </r>
       <r>    1.6253    1.0000 </r>
       <r>    1.6253    1.0000 </r>
       <r>    1.6253    1.0000 </r>
       <r>    1.6253    1.0000 </r>
       <r>    3.1410    1.0000 </r>
       <r>    3.1410    1.0000 </r>
       <r>    5.8776    0.0000 </r>
       <r>    5.9135    0.0000 </r>
       <r>    6.0299    0.0000 </r>
       <r>    6.0556    0.0000 </r>
      </set>
      <set comment="kpoint 12">
       <r>  -10.7063    1.0000 </r>
       <r>  -10.7063    1.0000 </r>
       <r>   -9.6098    1.0000 </r>
       <r>   -9.6098    1.0000 </r>
       <r>   -2.2015    1.0000 </r>
       <r>   -2.2015    1.0000 </r>
       <r>    0.0559    1.0000 </r>
       <r>    0.0559    1.0000 </r>
       <r>    0.5710    1.0000 </r>
       <r>    0.5710    1.0000 </r>
       <r>    0.7540    1.0000 </r>
       <r>    0.7540    1.0000 </r>
       <r>    1.2896    1.0000 </r>
       <r>    1.2896    1.0000 </r>
       <r>    2.0425    1.0000 </r>
       <r>    2.0425    1.0000 </r>
       <r>    2.9903    1.0000 </r>
       <r>    2.9903    1.0000 </r>
       <r>    5.5733    0.0000 </r>
       <r>    5.6245    0.0000 </r>
       <r>    5.7094    0.0000 </r>
       <r>    5.8326    0.0000 </r>
      </set>
      <set comment="kpoint 13">
       <r>  -10.1375    1.0000 </r>
       <r>  -10.1375    1.0000 </r>
       <r>   -9.3410    1.0000 </r>
       <r>   -9.3410    1.0000 </r>
       <r>   -1.8344    1.0000 </r>
       <r>   -1.8344    1.0000 </r>
       <r>   -0.6756    1.0000 </r>
       <r>   -0.6756    1.0000 </r>
       <r>   -0.4028    1.0000 </r>
       <r>   -0.4028    1.0000 </r>
       <r>    0.6545    1.0000 </r>
       <r>    0.6545    1.0000 </r>
       <r>    1.3412    1.0000 </r>
       <r>    1.3412    1.0000 </r>
       <r>    1.8004    1.0000 </r>
       <r>    1.8004    1.0000 </r>
       <r>    2.3994    1.0000 </r>
       <r>    2.3994    1.0000 </r>
       <r>    5.2600    0.0000 </r>
       <r>    5.2602    0.0000 </r>
       <r>    5.4485    0.0000 </r>
       <r>    5.4547    0.0000 </r>
      </set>
      <set comment="kpoint 14">
       <r>   -9.4624    1.0000 </r>
       <r>   -9.4624    1.0000 </r>
       <r>   -9.0326    1.0000 </r>
       <r>   -9.0326    1.0000 </r>
       <r>   -2.2684    1.0000 </r>
       <r>   -2.2684    1.0000 </r>
       <r>   -1.2782    1.0000 </r>
       <r>   -1.2782    1.0000 </r>
       <r>   -0.8022    1.0000 </r>
       <r>   -0.8022    1.0000 </r>
       <r>    0.1572    1.0000 </r>
       <r>    0.1572    1.0000 </r>
       <r>    1.3935    1.0000 </r>
       <r>    1.3936    1.0000 </r>
       <r>    1.9317    1.0000 </r>
       <r>    1.9317    1.0000 </r>
       <r>    2.2007    1.0000 </r>
       <r>    2.2007    1.0000 </r>
       <r>    5.2638    0.0000 </r>
       <r>    5.2638    0.0000 </r>
       <r>    5.5375    0.0000 </r>
       <r>    5.5376    0.0000 </r>
      </set>
      <set comment="kpoint 15">
       <r>   -9.1341    1.0000 </r>
       <r>   -9.1341    1.0000 </r>
       <r>   -8.8893    1.0000 </r>
       <r>   -8.8893    1.0000 </r>
       <r>   -2.6006    1.0000 </r>
       <r>   -2.6006    1.0000 </r>
       <r>   -1.6417    1.0000 </r>
       <r>   -1.6417    1.0000 </r>
       <r>   -0.9296    1.0000 </r>
       <r>   -0.9296    1.0000 </r>
       <r>   -0.0234    1.0000 </r>
       <r>   -0.0234    1.0000 </r>
       <r>    1.2560    1.0000 </r>
       <r>    1.2560    1.0000 </r>
       <r>    2.1588    1.0000 </r>
       <r>    2.1588    1.0000 </r>
       <r>    2.4789    1.0000 </r>
       <r>    2.4789    1.0000 </r>
       <r>    5.2861    0.0000 </r>
       <r>    5.2861    0.0000 </r>
       <r>    5.8018    0.0000 </r>
       <r>    5.8028    0.0000 </r>
      </set>
      <set comment="kpoint 16">
       <r>  -10.3135    1.0000 </r>
       <r>  -10.3135    1.0000 </r>
       <r>   -9.4228    1.0000 </r>
       <r>   -9.4227    1.0000 </r>
       <r>   -1.8542    1.0000 </r>
       <r>   -1.8542    1.0000 </r>
       <r>   -0.5094    1.0000 </r>
       <r>   -0.5093    1.0000 </r>
       <r>    0.0124    1.0000 </r>
       <r>    0.0124    1.0000 </r>
       <r>    0.4757    1.0000 </r>
       <r>    0.4757    1.0000 </r>
       <r>    1.0936    1.0000 </r>
       <r>    1.0936    1.0000 </r>
       <r>    2.1814    1.0000 </r>
       <r>    2.1814    1.0000 </r>
       <r>    2.6015    1.0000 </r>
       <r>    2.6015    1.0000 </r>
       <r>    5.1823    0.0000 </r>
       <r>    5.1839    0.0000 </r>
       <r>    5.5428    0.0000 </r>
       <r>    5.5930    0.0000 </r>
      </set>
      <set comment="kpoint 17">
       <r>   -9.6799    1.0000 </r>
       <r>   -9.6799    1.0000 </r>
       <r>   -9.1242    1.0000 </r>
       <r>   -9.1242    1.0000 </r>
       <r>   -1.9137    1.0000 </r>
       <r>   -1.9136    1.0000 </r>
       <r>   -0.9376    1.0000 </r>
       <r>   -0.9376    1.0000 </r>
       <r>   -0.6718    1.0000 </r>
       <r>   -0.6718    1.0000 </r>
       <r>   -0.0269    1.0000 </r>
       <r>   -0.0269    1.0000 </r>
       <r>    1.1928    1.0000 </r>
       <r>    1.1928    1.0000 </r>
       <r>    1.8282    1.0000 </r>
       <r>    1.8282    1.0000 </r>
       <r>    2.3077    1.0000 </r>
       <r>    2.3077    1.0000 </r>
       <r>    5.1026    0.0000 </r>
       <r>    5.1027    0.0000 </r>
       <r>    5.5544    0.0000 </r>
       <r>    5.5732    0.0000 </r>
      </set>
      <set comment="kpoint 18">
       <r>   -9.1494    1.0000 </r>
       <r>   -9.1494    1.0000 </r>
       <r>   -8.8803    1.0000 </r>
       <r>   -8.8803    1.0000 </r>
       <r>   -2.3133    1.0000 </r>
       <r>   -2.3133    1.0000 </r>
       <r>   -1.6981    1.0000 </r>
       <r>   -1.6981    1.0000 </r>
       <r>   -0.8035    1.0000 </r>
       <r>   -0.8035    1.0000 </r>
       <r>   -0.0449    1.0000 </r>
       <r>   -0.0449    1.0000 </r>
       <r>    1.2072    1.0000 </r>
       <r>    1.2072    1.0000 </r>
       <r>    1.3473    1.0000 </r>
       <r>    1.3473    1.0000 </r>
       <r>    2.6339    1.0000 </r>
       <r>    2.6339    1.0000 </r>
       <r>    5.3031    0.0000 </r>
       <r>    5.3031    0.0000 </r>
       <r>    5.8121    0.0000 </r>
       <r>    5.8147    0.0000 </r>
      </set>
      <set comment="kpoint 19">
       <r>   -9.1643    1.0000 </r>
       <r>   -9.1643    1.0000 </r>
       <r>   -8.8713    1.0000 </r>
       <r>   -8.8713    1.0000 </r>
       <r>   -1.9534    1.0000 </r>
       <r>   -1.9534    1.0000 </r>
       <r>   -1.7481    1.0000 </r>
       <r>   -1.7481    1.0000 </r>
       <r>   -0.4798    1.0000 </r>
       <r>   -0.4798    1.0000 </r>
       <r>   -0.0911    1.0000 </r>
       <r>   -0.0911    1.0000 </r>
       <r>    0.2259    1.0000 </r>
       <r>    0.2259    1.0000 </r>
       <r>    1.4804    1.0000 </r>
       <r>    1.4805    1.0000 </r>
       <r>    2.6054    1.0000 </r>
       <r>    2.6054    1.0000 </r>
       <r>    5.2494    0.0000 </r>
       <r>    5.2497    0.0000 </r>
       <r>    5.8583    0.0000 </r>
       <r>    6.1111    0.0000 </r>
      </set>
      <set comment="kpoint 20">
       <r>   -8.9294    1.0000 </r>
       <r>   -8.9294    1.0000 </r>
       <r>   -8.7522    1.0000 </r>
       <r>   -8.7522    1.0000 </r>
       <r>   -2.1328    1.0000 </r>
       <r>   -2.1328    1.0000 </r>
       <r>   -1.7837    1.0000 </r>
       <r>   -1.7837    1.0000 </r>
       <r>   -0.7606    1.0000 </r>
       <r>   -0.7606    1.0000 </r>
       <r>   -0.0994    1.0000 </r>
       <r>   -0.0994    1.0000 </r>
       <r>    0.1370    1.0000 </r>
       <r>    0.1370    1.0000 </r>
       <r>    1.0940    1.0000 </r>
       <r>    1.0941    1.0000 </r>
       <r>    2.9726    1.0000 </r>
       <r>    2.9726    1.0000 </r>
       <r>    4.9282    0.0000 </r>
       <r>    4.9282    0.0000 </r>
       <r>    6.2287    0.0000 </r>
       <r>    6.2379    0.0000 </r>
      </set>
     </set>
    </set>
   </array>
  </eigenvalues>
  <separator name="orbital magnetization" >
   <v name="MAGDIPOLOUT">      0.00000000      0.00000000      0.00000000</v>
  </separator>
  <dos>
   <i name="efermi">      3.30287695 </i>
   <total>
    <array>
     <dimension dim="1">gridpoints</dimension>
     <dimension dim="2">spin</dimension>
     <field>energy</field>
     <field>total</field>
     <field>integrated</field>
     <set>
      <set comment="spin 1">
       <r>   -12.9298     0.0000     0.0000 </r>
       <r>   -12.8590     0.0000     0.0000 </r>
       <r>   -12.7881     0.0000     0.0000 </r>
       <r>   -12.7173     0.0000     0.0000 </r>
       <r>   -12.6464     0.0000     0.0000 </r>
       <r>   -12.5756     0.0000     0.0000 </r>
       <r>   -12.5047     0.0000     0.0000 </r>
       <r>   -12.4339     0.0000     0.0000 </r>
       <r>   -12.3630     0.0000     0.0000 </r>
       <r>   -12.2922     0.0000     0.0000 </r>
       <r>   -12.2213     0.0000     0.0000 </r>
       <r>   -12.1505     0.0000     0.0000 </r>
       <r>   -12.0796     0.0000     0.0000 </r>
       <r>   -12.0088     0.0000     0.0000 </r>
       <r>   -11.9380     0.0000     0.0000 </r>
       <r>   -11.8671     0.0000     0.0000 </r>
       <r>   -11.7963     0.0000     0.0000 </r>
       <r>   -11.7254     0.0000     0.0000 </r>
       <r>   -11.6546     0.0000     0.0000 </r>
       <r>   -11.5837     0.0000     0.0000 </r>
       <r>   -11.5129     0.0000     0.0000 </r>
       <r>   -11.4420     0.0000     0.0000 </r>
       <r>   -11.3712     0.0000     0.0000 </r>
       <r>   -11.3003     0.0000     0.0000 </r>
       <r>   -11.2295     0.0000     0.0000 </r>
       <r>   -11.1586     0.0000     0.0000 </r>
       <r>   -11.0878     0.0000     0.0000 </r>
       <r>   -11.0170     0.0000     0.0000 </r>
       <r>   -10.9461     0.0000     0.0000 </r>
       <r>   -10.8753     0.3688     0.0084 </r>
       <r>   -10.8044     0.9482     0.0551 </r>
       <r>   -10.7336     1.5276     0.1428 </r>
       <r>   -10.6627     0.9950     0.2299 </r>
       <r>   -10.5919     1.0606     0.3027 </r>
       <r>   -10.5210     1.1263     0.3802 </r>
       <r>   -10.4502     1.1919     0.4623 </r>
       <r>   -10.3793     1.2576     0.5491 </r>
       <r>   -10.3085     1.3192     0.6405 </r>
       <r>   -10.2376     1.3313     0.7344 </r>
       <r>   -10.1668     1.3432     0.8291 </r>
       <r>   -10.0960     1.3803     0.9252 </r>
       <r>   -10.0251     1.4352     1.0250 </r>
       <r>    -9.9543     1.4901     1.1286 </r>
       <r>    -9.8834     1.5450     1.2361 </r>
       <r>    -9.8126     1.5999     1.3475 </r>
       <r>    -9.7417     1.6548     1.4628 </r>
       <r>    -9.6709     3.3373     1.6154 </r>
       <r>    -9.6000     4.3959     1.9287 </r>
       <r>    -9.5292     4.5915     2.2375 </r>
       <r>    -9.4583     5.0881     2.5802 </r>
       <r>    -9.3875     5.5573     2.9593 </r>
       <r>    -9.3166     5.9793     3.3663 </r>
       <r>    -9.2458     6.5428     3.8099 </r>
       <r>    -9.1749     7.1064     4.2934 </r>
       <r>    -9.1041     8.4811     5.0800 </r>
       <r>    -9.0333     8.3388     5.6755 </r>
       <r>    -8.9624     8.6779     6.2778 </r>
       <r>    -8.8916     8.3891     6.9185 </r>
       <r>    -8.8207     6.2707     7.6147 </r>
       <r>    -8.7499     0.0000     8.0000 </r>
       <r>    -8.6790     0.0000     8.0000 </r>
       <r>    -8.6082     0.0000     8.0000 </r>
       <r>    -8.5373     0.0000     8.0000 </r>
       <r>    -8.4665     0.0000     8.0000 </r>
       <r>    -8.3956     0.0000     8.0000 </r>
       <r>    -8.3248     0.0000     8.0000 </r>
       <r>    -8.2539     0.0000     8.0000 </r>
       <r>    -8.1831     0.0000     8.0000 </r>
       <r>    -8.1123     0.0000     8.0000 </r>
       <r>    -8.0414     0.0000     8.0000 </r>
       <r>    -7.9706     0.0000     8.0000 </r>
       <r>    -7.8997     0.0000     8.0000 </r>
       <r>    -7.8289     0.0000     8.0000 </r>
       <r>    -7.7580     0.0000     8.0000 </r>
       <r>    -7.6872     0.0000     8.0000 </r>
       <r>    -7.6163     0.0000     8.0000 </r>
       <r>    -7.5455     0.0000     8.0000 </r>
       <r>    -7.4746     0.0000     8.0000 </r>
       <r>    -7.4038     0.0000     8.0000 </r>
       <r>    -7.3329     0.0000     8.0000 </r>
       <r>    -7.2621     0.0000     8.0000 </r>
       <r>    -7.1912     0.0000     8.0000 </r>
       <r>    -7.1204     0.0000     8.0000 </r>
       <r>    -7.0496     0.0000     8.0000 </r>
       <r>    -6.9787     0.0000     8.0000 </r>
       <r>    -6.9079     0.0000     8.0000 </r>
       <r>    -6.8370     0.0000     8.0000 </r>
       <r>    -6.7662     0.0000     8.0000 </r>
       <r>    -6.6953     0.0000     8.0000 </r>
       <r>    -6.6245     0.0000     8.0000 </r>
       <r>    -6.5536     0.0000     8.0000 </r>
       <r>    -6.4828     0.0000     8.0000 </r>
       <r>    -6.4119     0.0000     8.0000 </r>
       <r>    -6.3411     0.0000     8.0000 </r>
       <r>    -6.2702     0.0000     8.0000 </r>
       <r>    -6.1994     0.0000     8.0000 </r>
       <r>    -6.1286     0.0000     8.0000 </r>
       <r>    -6.0577     0.0000     8.0000 </r>
       <r>    -5.9869     0.0000     8.0000 </r>
       <r>    -5.9160     0.0000     8.0000 </r>
       <r>    -5.8452     0.0000     8.0000 </r>
       <r>    -5.7743     0.0000     8.0000 </r>
       <r>    -5.7035     0.0000     8.0000 </r>
       <r>    -5.6326     0.0000     8.0000 </r>
       <r>    -5.5618     0.0000     8.0000 </r>
       <r>    -5.4909     0.0000     8.0000 </r>
       <r>    -5.4201     0.0000     8.0000 </r>
       <r>    -5.3492     0.0000     8.0000 </r>
       <r>    -5.2784     0.0000     8.0000 </r>
       <r>    -5.2075     0.0000     8.0000 </r>
       <r>    -5.1367     0.0000     8.0000 </r>
       <r>    -5.0659     0.0000     8.0000 </r>
       <r>    -4.9950     0.0000     8.0000 </r>
       <r>    -4.9242     0.0000     8.0000 </r>
       <r>    -4.8533     0.0000     8.0000 </r>
       <r>    -4.7825     0.0000     8.0000 </r>
       <r>    -4.7116     0.0000     8.0000 </r>
       <r>    -4.6408     0.0000     8.0000 </r>
       <r>    -4.5699     0.0000     8.0000 </r>
       <r>    -4.4991     0.0000     8.0000 </r>
       <r>    -4.4282     0.0000     8.0000 </r>
       <r>    -4.3574     0.0000     8.0000 </r>
       <r>    -4.2865     0.0000     8.0000 </r>
       <r>    -4.2157     0.0000     8.0000 </r>
       <r>    -4.1449     0.0000     8.0000 </r>
       <r>    -4.0740     0.0000     8.0000 </r>
       <r>    -4.0032     0.0000     8.0000 </r>
       <r>    -3.9323     0.0000     8.0000 </r>
       <r>    -3.8615     0.0000     8.0000 </r>
       <r>    -3.7906     0.0000     8.0000 </r>
       <r>    -3.7198     0.0000     8.0000 </r>
       <r>    -3.6489     0.0000     8.0000 </r>
       <r>    -3.5781     0.0000     8.0000 </r>
       <r>    -3.5072     0.0000     8.0000 </r>
       <r>    -3.4364     0.0000     8.0000 </r>
       <r>    -3.3655     0.0000     8.0000 </r>
       <r>    -3.2947     0.0000     8.0000 </r>
       <r>    -3.2238     0.0000     8.0000 </r>
       <r>    -3.1530     0.0000     8.0000 </r>
       <r>    -3.0822     0.0000     8.0000 </r>
       <r>    -3.0113     0.0000     8.0000 </r>
       <r>    -2.9405     0.0000     8.0000 </r>
       <r>    -2.8696     0.0000     8.0000 </r>
       <r>    -2.7988     0.0000     8.0000 </r>
       <r>    -2.7279     0.0000     8.0000 </r>
       <r>    -2.6571     0.0000     8.0000 </r>
       <r>    -2.5862     0.1776     8.0016 </r>
       <r>    -2.5154     1.0580     8.0454 </r>
       <r>    -2.4445     2.0607     8.1547 </r>
       <r>    -2.3737     3.2584     8.3420 </r>
       <r>    -2.3028     5.0929     8.6261 </r>
       <r>    -2.2320     5.5368     9.0035 </r>
       <r>    -2.1612     5.9862     9.4122 </r>
       <r>    -2.0903     7.5258     9.9809 </r>
       <r>    -2.0195     6.4128    10.4746 </r>
       <r>    -1.9486     7.4032    10.9035 </r>
       <r>    -1.8778     8.1967    11.6281 </r>
       <r>    -1.8069     2.0616    11.9713 </r>
       <r>    -1.7361     9.3009    12.5571 </r>
       <r>    -1.6652     4.7553    13.0396 </r>
       <r>    -1.5944     2.6817    13.2607 </r>
       <r>    -1.5235     2.4543    13.4426 </r>
       <r>    -1.4527     2.2271    13.6085 </r>
       <r>    -1.3818     2.0002    13.7582 </r>
       <r>    -1.3110     1.7735    13.8919 </r>
       <r>    -1.2401     1.6703    14.0121 </r>
       <r>    -1.1693     1.6778    14.1307 </r>
       <r>    -1.0985     1.6854    14.2498 </r>
       <r>    -1.0276     1.6929    14.3695 </r>
       <r>    -0.9568     1.7622    14.4899 </r>
       <r>    -0.8859     5.1941    14.7158 </r>
       <r>    -0.8151    10.6944    15.2670 </r>
       <r>    -0.7442    12.0940    16.1528 </r>
       <r>    -0.6734     9.8406    16.8638 </r>
       <r>    -0.6025     8.2059    17.5296 </r>
       <r>    -0.5317     5.0023    17.9976 </r>
       <r>    -0.4608     2.6396    18.2502 </r>
       <r>    -0.3900     2.3738    18.4273 </r>
       <r>    -0.3191     2.2021    18.5891 </r>
       <r>    -0.2483     2.0421    18.7394 </r>
       <r>    -0.1775     1.8823    18.8784 </r>
       <r>    -0.1066    13.8324    19.0975 </r>
       <r>    -0.0358    21.3341    20.4825 </r>
       <r>     0.0351     7.6010    21.2963 </r>
       <r>     0.1059     5.2096    21.7527 </r>
       <r>     0.1768     5.9299    22.2355 </r>
       <r>     0.2476     3.7864    22.5605 </r>
       <r>     0.3185     3.6004    22.8221 </r>
       <r>     0.3893     3.4143    23.0706 </r>
       <r>     0.4602     3.3704    23.3062 </r>
       <r>     0.5310     5.0603    23.6052 </r>
       <r>     0.6019     5.0347    23.9705 </r>
       <r>     0.6727     4.2517    24.3181 </r>
       <r>     0.7436     2.7304    24.5654 </r>
       <r>     0.8144     1.7935    24.7024 </r>
       <r>     0.8852     1.7502    24.8279 </r>
       <r>     0.9561     1.7137    24.9506 </r>
       <r>     1.0269     1.6838    25.0709 </r>
       <r>     1.0978     4.1500    25.2337 </r>
       <r>     1.1686    10.4687    25.7353 </r>
       <r>     1.2395    18.1289    26.7852 </r>
       <r>     1.3103    13.7924    27.9522 </r>
       <r>     1.3812     5.1703    28.6143 </r>
       <r>     1.4520     3.1616    28.8871 </r>
       <r>     1.5229     2.9561    29.1013 </r>
       <r>     1.5937     2.8771    29.3079 </r>
       <r>     1.6646     3.0064    29.5130 </r>
       <r>     1.7354     3.5742    29.7401 </r>
       <r>     1.8062     6.3422    30.0728 </r>
       <r>     1.8771     8.5665    30.6236 </r>
       <r>     1.9479     4.8951    31.1158 </r>
       <r>     2.0188     4.4525    31.4518 </r>
       <r>     2.0896     3.1960    31.7277 </r>
       <r>     2.1605     1.6680    31.8966 </r>
       <r>     2.2313     2.4423    32.0173 </r>
       <r>     2.3022     5.8888    32.3025 </r>
       <r>     2.3730     7.8767    32.8801 </r>
       <r>     2.4439     7.2246    33.4119 </r>
       <r>     2.5147     6.6880    33.9057 </r>
       <r>     2.5856     6.1595    34.3593 </r>
       <r>     2.6564     4.3342    34.7489 </r>
       <r>     2.7272     3.8106    35.0375 </r>
       <r>     2.7981     3.2864    35.2889 </r>
       <r>     2.8689     2.9830    35.5062 </r>
       <r>     2.9398     2.4610    35.7038 </r>
       <r>     3.0106     0.9709    35.8788 </r>
       <r>     3.0815     0.8478    35.9443 </r>
       <r>     3.1523     0.3310    35.9839 </r>
       <r>     3.2232     0.0877    35.9978 </r>
       <r>     3.2940     0.0003    36.0000 </r>
       <r>     3.3649     0.0000    36.0000 </r>
       <r>     3.4357     0.0000    36.0000 </r>
       <r>     3.5066     0.0000    36.0000 </r>
       <r>     3.5774     0.0000    36.0000 </r>
       <r>     3.6483     0.0000    36.0000 </r>
       <r>     3.7191     0.0000    36.0000 </r>
       <r>     3.7899     0.0000    36.0000 </r>
       <r>     3.8608     0.0000    36.0000 </r>
       <r>     3.9316     0.0000    36.0000 </r>
       <r>     4.0025     0.0000    36.0000 </r>
       <r>     4.0733     0.0000    36.0000 </r>
       <r>     4.1442     0.0000    36.0000 </r>
       <r>     4.2150     0.0000    36.0000 </r>
       <r>     4.2859     0.0000    36.0000 </r>
       <r>     4.3567     0.0000    36.0000 </r>
       <r>     4.4276     0.0000    36.0000 </r>
       <r>     4.4984     0.0000    36.0000 </r>
       <r>     4.5693     0.0000    36.0000 </r>
       <r>     4.6401     0.0000    36.0000 </r>
       <r>     4.7109     0.0000    36.0000 </r>
       <r>     4.7818     0.0000    36.0000 </r>
       <r>     4.8526     0.0000    36.0000 </r>
       <r>     4.9235     0.0000    36.0000 </r>
       <r>     4.9943     1.5323    36.1528 </r>
       <r>     5.0652     4.8843    36.3718 </r>
       <r>     5.1360     8.5103    36.8458 </r>
       <r>     5.2069    12.6957    37.5970 </r>
       <r>     5.2777    26.4677    38.6624 </r>
       <r>     5.3486     2.2379    39.4456 </r>
       <r>     5.4194     1.5824    39.5776 </r>
       <r>     5.4903     7.9512    39.8418 </r>
       <r>     5.5611     7.5979    40.5854 </r>
       <r>     5.6320     7.5653    41.1379 </r>
       <r>     5.7028     7.7825    41.6845 </r>
       <r>     5.7736     7.3942    42.2150 </r>
       <r>     5.8445     6.4765    42.8308 </r>
       <r>     5.9153     3.7855    43.1432 </r>
       <r>     5.9862     3.0787    43.3858 </r>
       <r>     6.0570     2.4679    43.5835 </r>
       <r>     6.1279     1.8085    43.7305 </r>
       <r>     6.1987     1.7556    43.8653 </r>
       <r>     6.2696     1.0209    43.9626 </r>
       <r>     6.3404     0.0000    44.0000 </r>
       <r>     6.4113     0.0000    44.0000 </r>
       <r>     6.4821     0.0000    44.0000 </r>
       <r>     6.5530     0.0000    44.0000 </r>
       <r>     6.6238     0.0000    44.0000 </r>
       <r>     6.6946     0.0000    44.0000 </r>
       <r>     6.7655     0.0000    44.0000 </r>
       <r>     6.8363     0.0000    44.0000 </r>
       <r>     6.9072     0.0000    44.0000 </r>
       <r>     6.9780     0.0000    44.0000 </r>
       <r>     7.0489     0.0000    44.0000 </r>
       <r>     7.1197     0.0000    44.0000 </r>
       <r>     7.1906     0.0000    44.0000 </r>
       <r>     7.2614     0.0000    44.0000 </r>
       <r>     7.3323     0.0000    44.0000 </r>
       <r>     7.4031     0.0000    44.0000 </r>
       <r>     7.4740     0.0000    44.0000 </r>
       <r>     7.5448     0.0000    44.0000 </r>
       <r>     7.6157     0.0000    44.0000 </r>
       <r>     7.6865     0.0000    44.0000 </r>
       <r>     7.7573     0.0000    44.0000 </r>
       <r>     7.8282     0.0000    44.0000 </r>
       <r>     7.8990     0.0000    44.0000 </r>
       <r>     7.9699     0.0000    44.0000 </r>
       <r>     8.0407     0.0000    44.0000 </r>
       <r>     8.1116     0.0000    44.0000 </r>
       <r>     8.1824     0.0000    44.0000 </r>
       <r>     8.2533     0.0000    44.0000 </r>
       <r>     8.3241     0.0000    44.0000 </r>
      </set>
     </set>
    </array>
   </total>
  </dos>
 </calculation>
 <structure name="finalpos" >
  <crystal>
   <varray name="basis" >
    <v>       3.19031573       0.00000000       0.00000000 </v>
    <v>      -1.59515786       2.76289447       0.00000000 </v>
    <v>       0.00000000       0.00000000      14.87900430 </v>
   </varray>
   <i name="volume">    131.15106795 </i>
   <varray name="rec_basis" >
    <v>       0.31344860       0.18096963       0.00000000 </v>
    <v>       0.00000000       0.36193927       0.00000000 </v>
    <v>       0.00000000       0.00000000       0.06720880 </v>
   </varray>
  </crystal>
  <varray name="positions" >
   <v>       0.33333300       0.66666700       0.25000000 </v>
   <v>       0.66666700       0.33333300       0.75000000 </v>
   <v>       0.33333300       0.66666700       0.85517400 </v>
   <v>       0.66666700       0.33333300       0.14482600 </v>
   <v>       0.66666600       0.33333300       0.35517400 </v>
   <v>       0.33333400       0.66666700       0.64482600 </v>
  </varray>
 </structure>
</modeling>
