   6   6   0   0
  0.2185851E+02  0.3190316E-09  0.3190316E-09  0.1487900E-08  0.5000000E-15
  1.000000000000000E-004
  CAR 
 unknown system                          
      8.33052707    -12.92956836  301      3.30782952      1.00000000
    -12.930  0.0000E+00  0.0000E+00
    -12.859  0.0000E+00  0.0000E+00
    -12.788  0.0000E+00  0.0000E+00
    -12.717  0.0000E+00  0.0000E+00
    -12.646  0.0000E+00  0.0000E+00
    -12.575  0.0000E+00  0.0000E+00
    -12.504  0.0000E+00  0.0000E+00
    -12.433  0.0000E+00  0.0000E+00
    -12.363  0.0000E+00  0.0000E+00
    -12.292  0.0000E+00  0.0000E+00
    -12.221  0.0000E+00  0.0000E+00
    -12.150  0.0000E+00  0.0000E+00
    -12.079  0.0000E+00  0.0000E+00
    -12.008  0.0000E+00  0.0000E+00
    -11.937  0.0000E+00  0.0000E+00
    -11.867  0.0000E+00  0.0000E+00
    -11.796  0.0000E+00  0.0000E+00
    -11.725  0.0000E+00  0.0000E+00
    -11.654  0.0000E+00  0.0000E+00
    -11.583  0.0000E+00  0.0000E+00
    -11.512  0.0000E+00  0.0000E+00
    -11.441  0.0000E+00  0.0000E+00
    -11.370  0.0000E+00  0.0000E+00
    -11.300  0.0000E+00  0.0000E+00
    -11.229  0.0000E+00  0.0000E+00
    -11.158  0.0000E+00  0.0000E+00
    -11.087  0.0000E+00  0.0000E+00
    -11.016  0.0000E+00  0.0000E+00
    -10.945  0.0000E+00  0.0000E+00
    -10.874  0.3737E+00  0.8661E-02
    -10.804  0.9532E+00  0.5568E-01
    -10.733  0.1533E+01  0.1438E+00
    -10.662  0.9956E+00  0.2306E+00
    -10.591  0.1061E+01  0.3035E+00
    -10.520  0.1127E+01  0.3810E+00
    -10.449  0.1193E+01  0.4632E+00
    -10.378  0.1258E+01  0.5500E+00
    -10.307  0.1319E+01  0.6415E+00
    -10.237  0.1331E+01  0.7354E+00
    -10.166  0.1343E+01  0.8302E+00
    -10.095  0.1381E+01  0.9264E+00
    -10.024  0.1436E+01  0.1026E+01
     -9.953  0.1491E+01  0.1130E+01
     -9.882  0.1546E+01  0.1237E+01
     -9.811  0.1601E+01  0.1349E+01
     -9.741  0.1655E+01  0.1464E+01
     -9.670  0.3376E+01  0.1619E+01
     -9.599  0.4354E+01  0.1933E+01
     -9.528  0.4598E+01  0.2242E+01
     -9.457  0.5096E+01  0.2585E+01
     -9.386  0.5562E+01  0.2965E+01
     -9.315  0.5987E+01  0.3373E+01
     -9.244  0.6551E+01  0.3817E+01
     -9.174  0.7115E+01  0.4301E+01
     -9.103  0.8479E+01  0.5089E+01
     -9.032  0.8341E+01  0.5685E+01
     -8.961  0.8684E+01  0.6288E+01
     -8.890  0.9797E+01  0.6929E+01
     -8.819  0.6216E+01  0.7622E+01
     -8.748  0.0000E+00  0.8000E+01
     -8.678  0.0000E+00  0.8000E+01
     -8.607  0.0000E+00  0.8000E+01
     -8.536  0.0000E+00  0.8000E+01
     -8.465  0.0000E+00  0.8000E+01
     -8.394  0.0000E+00  0.8000E+01
     -8.323  0.0000E+00  0.8000E+01
     -8.252  0.0000E+00  0.8000E+01
     -8.181  0.0000E+00  0.8000E+01
     -8.111  0.0000E+00  0.8000E+01
     -8.040  0.0000E+00  0.8000E+01
     -7.969  0.0000E+00  0.8000E+01
     -7.898  0.0000E+00  0.8000E+01
     -7.827  0.0000E+00  0.8000E+01
     -7.756  0.0000E+00  0.8000E+01
     -7.685  0.0000E+00  0.8000E+01
     -7.615  0.0000E+00  0.8000E+01
     -7.544  0.0000E+00  0.8000E+01
     -7.473  0.0000E+00  0.8000E+01
     -7.402  0.0000E+00  0.8000E+01
     -7.331  0.0000E+00  0.8000E+01
     -7.260  0.0000E+00  0.8000E+01
     -7.189  0.0000E+00  0.8000E+01
     -7.118  0.0000E+00  0.8000E+01
     -7.048  0.0000E+00  0.8000E+01
     -6.977  0.0000E+00  0.8000E+01
     -6.906  0.0000E+00  0.8000E+01
     -6.835  0.0000E+00  0.8000E+01
     -6.764  0.0000E+00  0.8000E+01
     -6.693  0.0000E+00  0.8000E+01
     -6.622  0.0000E+00  0.8000E+01
     -6.552  0.0000E+00  0.8000E+01
     -6.481  0.0000E+00  0.8000E+01
     -6.410  0.0000E+00  0.8000E+01
     -6.339  0.0000E+00  0.8000E+01
     -6.268  0.0000E+00  0.8000E+01
     -6.197  0.0000E+00  0.8000E+01
     -6.126  0.0000E+00  0.8000E+01
     -6.055  0.0000E+00  0.8000E+01
     -5.985  0.0000E+00  0.8000E+01
     -5.914  0.0000E+00  0.8000E+01
     -5.843  0.0000E+00  0.8000E+01
     -5.772  0.0000E+00  0.8000E+01
     -5.701  0.0000E+00  0.8000E+01
     -5.630  0.0000E+00  0.8000E+01
     -5.559  0.0000E+00  0.8000E+01
     -5.489  0.0000E+00  0.8000E+01
     -5.418  0.0000E+00  0.8000E+01
     -5.347  0.0000E+00  0.8000E+01
     -5.276  0.0000E+00  0.8000E+01
     -5.205  0.0000E+00  0.8000E+01
     -5.134  0.0000E+00  0.8000E+01
     -5.063  0.0000E+00  0.8000E+01
     -4.992  0.0000E+00  0.8000E+01
     -4.922  0.0000E+00  0.8000E+01
     -4.851  0.0000E+00  0.8000E+01
     -4.780  0.0000E+00  0.8000E+01
     -4.709  0.0000E+00  0.8000E+01
     -4.638  0.0000E+00  0.8000E+01
     -4.567  0.0000E+00  0.8000E+01
     -4.496  0.0000E+00  0.8000E+01
     -4.426  0.0000E+00  0.8000E+01
     -4.355  0.0000E+00  0.8000E+01
     -4.284  0.0000E+00  0.8000E+01
     -4.213  0.0000E+00  0.8000E+01
     -4.142  0.0000E+00  0.8000E+01
     -4.071  0.0000E+00  0.8000E+01
     -4.000  0.0000E+00  0.8000E+01
     -3.929  0.0000E+00  0.8000E+01
     -3.859  0.0000E+00  0.8000E+01
     -3.788  0.0000E+00  0.8000E+01
     -3.717  0.0000E+00  0.8000E+01
     -3.646  0.0000E+00  0.8000E+01
     -3.575  0.0000E+00  0.8000E+01
     -3.504  0.0000E+00  0.8000E+01
     -3.433  0.0000E+00  0.8000E+01
     -3.363  0.0000E+00  0.8000E+01
     -3.292  0.0000E+00  0.8000E+01
     -3.221  0.0000E+00  0.8000E+01
     -3.150  0.0000E+00  0.8000E+01
     -3.079  0.0000E+00  0.8000E+01
     -3.008  0.0000E+00  0.8000E+01
     -2.937  0.0000E+00  0.8000E+01
     -2.866  0.0000E+00  0.8000E+01
     -2.796  0.0000E+00  0.8000E+01
     -2.725  0.0000E+00  0.8000E+01
     -2.654  0.0000E+00  0.8000E+01
     -2.583  0.2158E+00  0.8002E+01
     -2.512  0.1098E+01  0.8049E+01
     -2.441  0.2110E+01  0.8161E+01
     -2.370  0.3316E+01  0.8352E+01
     -2.300  0.5200E+01  0.8642E+01
     -2.229  0.5559E+01  0.9021E+01
     -2.158  0.6004E+01  0.9431E+01
     -2.087  0.7475E+01  0.1001E+02
     -2.016  0.6362E+01  0.1050E+02
     -1.945  0.7923E+01  0.1093E+02
     -1.874  0.7857E+01  0.1165E+02
     -1.803  0.1819E+01  0.1198E+02
     -1.733  0.8957E+01  0.1259E+02
     -1.662  0.4470E+01  0.1306E+02
     -1.591  0.2671E+01  0.1327E+02
     -1.520  0.2443E+01  0.1345E+02
     -1.449  0.2216E+01  0.1362E+02
     -1.378  0.1989E+01  0.1377E+02
     -1.307  0.1762E+01  0.1390E+02
     -1.237  0.1671E+01  0.1402E+02
     -1.166  0.1678E+01  0.1414E+02
     -1.095  0.1686E+01  0.1426E+02
     -1.024  0.1693E+01  0.1438E+02
     -0.953  0.1807E+01  0.1450E+02
     -0.882  0.5449E+01  0.1474E+02
     -0.811  0.1095E+02  0.1531E+02
     -0.740  0.1048E+02  0.1620E+02
     -0.670  0.9841E+01  0.1690E+02
     -0.599  0.8038E+01  0.1756E+02
     -0.528  0.4832E+01  0.1802E+02
     -0.457  0.2623E+01  0.1826E+02
     -0.386  0.2362E+01  0.1844E+02
     -0.315  0.2193E+01  0.1860E+02
     -0.244  0.2033E+01  0.1875E+02
     -0.174  0.1874E+01  0.1889E+02
     -0.103  0.1591E+02  0.1915E+02
     -0.032  0.2093E+02  0.2056E+02
      0.039  0.7464E+01  0.2133E+02
      0.110  0.6287E+01  0.2178E+02
      0.181  0.5770E+01  0.2226E+02
      0.252  0.3776E+01  0.2258E+02
      0.323  0.3590E+01  0.2284E+02
      0.393  0.3404E+01  0.2308E+02
      0.464  0.3496E+01  0.2332E+02
      0.535  0.5188E+01  0.2363E+02
      0.606  0.5036E+01  0.2399E+02
      0.677  0.4164E+01  0.2433E+02
      0.748  0.2644E+01  0.2458E+02
      0.819  0.1791E+01  0.2471E+02
      0.889  0.1748E+01  0.2484E+02
      0.960  0.1712E+01  0.2496E+02
      1.031  0.1682E+01  0.2508E+02
      1.102  0.4663E+01  0.2525E+02
      1.173  0.1091E+02  0.2578E+02
      1.244  0.1790E+02  0.2686E+02
      1.315  0.1338E+02  0.2801E+02
      1.386  0.4906E+01  0.2864E+02
      1.456  0.3138E+01  0.2890E+02
      1.527  0.2951E+01  0.2911E+02
      1.598  0.2872E+01  0.2932E+02
      1.669  0.3026E+01  0.2953E+02
      1.740  0.3666E+01  0.2976E+02
      1.811  0.6600E+01  0.3010E+02
      1.882  0.8551E+01  0.3066E+02
      1.952  0.4891E+01  0.3114E+02
      2.023  0.4397E+01  0.3147E+02
      2.094  0.3086E+01  0.3174E+02
      2.165  0.1605E+01  0.3190E+02
      2.236  0.2616E+01  0.3203E+02
      2.307  0.7196E+01  0.3233E+02
      2.378  0.7818E+01  0.3292E+02
      2.449  0.7193E+01  0.3345E+02
      2.519  0.6648E+01  0.3394E+02
      2.590  0.6137E+01  0.3439E+02
      2.661  0.4300E+01  0.3477E+02
      2.732  0.3776E+01  0.3506E+02
      2.803  0.3252E+01  0.3530E+02
      2.874  0.2977E+01  0.3552E+02
      2.945  0.2407E+01  0.3572E+02
      3.016  0.9681E+00  0.3588E+02
      3.086  0.8239E+00  0.3595E+02
      3.157  0.3088E+00  0.3599E+02
      3.228  0.7637E-01  0.3600E+02
      3.299  0.0000E+00  0.3600E+02
      3.370  0.0000E+00  0.3600E+02
      3.441  0.0000E+00  0.3600E+02
      3.512  0.0000E+00  0.3600E+02
      3.582  0.0000E+00  0.3600E+02
      3.653  0.0000E+00  0.3600E+02
      3.724  0.0000E+00  0.3600E+02
      3.795  0.0000E+00  0.3600E+02
      3.866  0.0000E+00  0.3600E+02
      3.937  0.0000E+00  0.3600E+02
      4.008  0.0000E+00  0.3600E+02
      4.079  0.0000E+00  0.3600E+02
      4.149  0.0000E+00  0.3600E+02
      4.220  0.0000E+00  0.3600E+02
      4.291  0.0000E+00  0.3600E+02
      4.362  0.0000E+00  0.3600E+02
      4.433  0.0000E+00  0.3600E+02
      4.504  0.0000E+00  0.3600E+02
      4.575  0.0000E+00  0.3600E+02
      4.645  0.0000E+00  0.3600E+02
      4.716  0.0000E+00  0.3600E+02
      4.787  0.0000E+00  0.3600E+02
      4.858  0.0000E+00  0.3600E+02
      4.929  0.7939E+01  0.3604E+02
      5.000  0.1697E+01  0.3616E+02
      5.071  0.5185E+01  0.3640E+02
      5.142  0.8814E+01  0.3689E+02
      5.212  0.1296E+02  0.3767E+02
      5.283  0.2625E+02  0.3881E+02
      5.354  0.2243E+01  0.3946E+02
      5.425  0.1631E+01  0.3960E+02
      5.496  0.8541E+01  0.3990E+02
      5.567  0.1058E+02  0.4073E+02
      5.638  0.8355E+01  0.4138E+02
      5.708  0.7384E+01  0.4193E+02
      5.779  0.9801E+01  0.4244E+02
      5.850  0.4800E+01  0.4300E+02
      5.921  0.3103E+01  0.4325E+02
      5.992  0.2460E+01  0.4345E+02
      6.063  0.1987E+01  0.4360E+02
      6.134  0.1747E+01  0.4373E+02
      6.205  0.1711E+01  0.4387E+02
      6.275  0.9814E+00  0.4396E+02
      6.346  0.0000E+00  0.4400E+02
      6.417  0.0000E+00  0.4400E+02
      6.488  0.0000E+00  0.4400E+02
      6.559  0.0000E+00  0.4400E+02
      6.630  0.0000E+00  0.4400E+02
      6.701  0.0000E+00  0.4400E+02
      6.771  0.0000E+00  0.4400E+02
      6.842  0.0000E+00  0.4400E+02
      6.913  0.0000E+00  0.4400E+02
      6.984  0.0000E+00  0.4400E+02
      7.055  0.0000E+00  0.4400E+02
      7.126  0.0000E+00  0.4400E+02
      7.197  0.0000E+00  0.4400E+02
      7.268  0.0000E+00  0.4400E+02
      7.338  0.0000E+00  0.4400E+02
      7.409  0.0000E+00  0.4400E+02
      7.480  0.0000E+00  0.4400E+02
      7.551  0.0000E+00  0.4400E+02
      7.622  0.0000E+00  0.4400E+02
      7.693  0.0000E+00  0.4400E+02
      7.764  0.0000E+00  0.4400E+02
      7.834  0.0000E+00  0.4400E+02
      7.905  0.0000E+00  0.4400E+02
      7.976  0.0000E+00  0.4400E+02
      8.047  0.0000E+00  0.4400E+02
      8.118  0.0000E+00  0.4400E+02
      8.189  0.0000E+00  0.4400E+02
      8.260  0.0000E+00  0.4400E+02
      8.331  0.0000E+00  0.4400E+02
