Automatically generated mesh
      20
Reciprocal lattice
    0.00000000000000    0.00000000000000    0.00000000000000             1
    0.12500000000000   -0.00000000000000    0.00000000000000             6
    0.25000000000000   -0.00000000000000    0.00000000000000             6
    0.37500000000000   -0.00000000000000    0.00000000000000             6
    0.50000000000000   -0.00000000000000    0.00000000000000             3
    0.12500000000000    0.12500000000000    0.00000000000000             6
    0.25000000000000    0.12500000000000    0.00000000000000            12
    0.37500000000000    0.12500000000000    0.00000000000000            12
    0.25000000000000    0.25000000000000    0.00000000000000             6
    0.37500000000000    0.25000000000000    0.00000000000000             6
    0.00000000000000    0.00000000000000    0.50000000000000             1
    0.12500000000000   -0.00000000000000    0.50000000000000             6
    0.25000000000000   -0.00000000000000    0.50000000000000             6
    0.37500000000000   -0.00000000000000    0.50000000000000             6
    0.50000000000000   -0.00000000000000    0.50000000000000             3
    0.12500000000000    0.12500000000000    0.50000000000000             6
    0.25000000000000    0.12500000000000    0.50000000000000            12
    0.37500000000000    0.12500000000000    0.50000000000000            12
    0.25000000000000    0.25000000000000    0.50000000000000             6
    0.37500000000000    0.25000000000000    0.50000000000000             6
Tetrahedra
       136    0.00130208333333
         8         2         2         6        12
         8         1         2         2        12
         4         1         2        11        12
         4         2         6        12        16
         8         2        12        12        16
         8         2        11        12        12
         8         3         6         7        16
         8         2         3         6        16
         4         2         3        12        16
         4         3         7        16        17
         8         3        13        16        17
         8         3        12        13        16
         8         4         7         8        17
         8         3         4         7        17
         4         3         4        13        17
         4         4         8        17        18
         8         4        14        17        18
         8         4        13        14        17
         8         5         8         8        18
         8         4         5         8        18
         4         4         5        14        18
         4         5         8        18        18
         4         5        15        18        18
         8         5        14        15        18
         8         4         7         8        18
         4         4         5        15        18
         4         4         7        17        18
         8         4        14        15        18
         8         3         6         7        17
         4         3         4        14        17
         4         3         6        16        17
         8         3        13        14        17
         4         2         2         6        16
         4         2         3        13        16
         4         2         2        12        16
         8         2        12        13        16
         4         1         2        12        12
         4         1        11        12        12
         8         3         6         7        13
         8         2         3         6        13
         4         2         6        12        13
         4         6         7        13        17
         8         6        13        16        17
         8         6        12        13        16
         8         7         7         9        17
         8         6         7         7        17
         4         6         7        16        17
         4         7         9        17        19
         8         7        17        17        19
         8         7        16        17        17
         8         8         9        10        19
         8         7         8         9        19
         4         7         8        17        19
         4         8        10        19        20
         8         8        18        19        20
         8         8        17        18        19
         8         8         9        10        20
         4         8         8        10        20
         4         8         8        18        20
         4         8         9        19        20
         8         8        18        18        20
         4         7         7         9        19
         4         7         8        18        19
         4         7         7        17        19
         8         7        17        18        19
         4         6         7        17        17
         4         3         6        13        17
         4         6        16        17        17
         4         2         6        13        16
         8         4         7         8        14
         8         3         4         7        14
         4         3         7        13        14
         4         7         8        14        18
         8         7        14        17        18
         8         7        13        14        17
         8         8         9        10        18
         8         7         8         9        18
         4         7         9        17        18
         4         9        10        18        20
         8         9        18        19        20
         8         9        17        18        19
         4        10        10        10        20
         8         9        10        10        20
         4         9        10        19        20
         4        10        10        20        20
         4        10        20        20        20
         8        10        19        20        20
         4         9        10        20        20
         4         8         9        18        20
         4         9        19        20        20
         4         7         9        18        19
         4         4         7        14        18
         4         3         7        14        17
         4         5         8         8        15
         8         4         5         8        15
         4         4         8        14        15
         4         8         8        15        18
         8         8        15        18        18
         8         8        14        15        18
         8         8         8        10        18
         4         8        10        18        18
         4         9        10        18        19
         8        10        18        19        20
         4        10        18        18        20
         4         9        10        10        19
         4        10        10        19        20
         4         8        10        18        19
         4         8        10        18        20
         4         5         8        15        18
         4         4         8        15        18
         8         4         5         8        14
         4         5         8        14        15
         4         7         8        14        17
         8         8        14        17        18
         8         7         8         9        17
         4         8         9        17        18
         4         7         9        17        17
         4         9        17        17        19
         4         8         9        17        19
         4         4         8        14        17
         4         5         8        14        18
         8         3         4         7        13
         4         4         7        13        14
         4         6         7        13        16
         8         7        13        16        17
         4         6         7         7        16
         4         7         7        16        17
         4         3         7        13        16
         4         4         7        13        17
         8         2         3         6        12
         4         3         6        12        13
         4         2         6        12        12
         4         6        12        12        16
         4         3         6        12        16
         4         1         2         2        11
         4         2         2        11        12
