 vasp.5.4.4.18Apr17-6-g9f103f2a35 (build Jun 30 2017 11:15:00) complex          
  
 executed on    STALLO_VASP_5.4.4 date 2019.11.08  11:38:51
 running on    4 total cores
 distrk:  each k-point on    4 cores,    1 groups
 distr:  one band on NCORES_PER_BAND=   2 cores,    2 groups


--------------------------------------------------------------------------------------------------------


 INCAR:
 POTCAR:   PAW_PBE Mo 08Apr2002                   
 POTCAR:    PAW_PBE S 17Jan2003                   
 POTCAR:   PAW_PBE Mo 08Apr2002                   
   VRHFIN =Mo: 4p5s4d                                                           
   LEXCH  = PE                                                                  
   EATOM  =   217.5180 eV,   15.9871 Ry                                         
                                                                                
   TITEL  = PAW_PBE Mo 08Apr2002                                                
   LULTRA =        F    use ultrasoft PP ?                                      
   IUNSCR =        1    unscreen: 0-lin 1-nonlin 2-no                           
   RPACOR =    2.200    partial core radius                                     
   POMASS =   95.940; ZVAL   =    6.000    mass and valenz                      
   RCORE  =    2.750    outmost cutoff radius                                   
   RWIGS  =    2.750; RWIGS  =    1.455    wigner-seitz radius (au A)           
   ENMAX  =  224.584; ENMIN  =  168.438 eV                                      
   RCLOC  =    2.111    cutoff for local pot                                    
   LCOR   =        T    correct aug charges                                     
   LPAW   =        T    paw PP                                                  
   EAUG   =  345.278                                                            
   DEXC   =    -.088                                                            
   RMAX   =    3.077    core radius for proj-oper                               
   RAUG   =    1.300    factor for augmentation sphere                          
   RDEP   =    2.815    radius for radial grids                                 
   QCUT   =   -4.063; QGAM   =    8.126    optimization parameters              
                                                                                
   Description                                                                  
     l     E      TYP  RCUT    TYP  RCUT                                        
     2   .000     23  2.500                                                     
     2   .000     23  2.500                                                     
     0   .000     23  2.600                                                     
     0  1.000     23  2.600                                                     
     1   .400     23  2.750                                                     
     1  2.000     23  2.750                                                     
     3   .000      7   .000                                                     
  local pseudopotential read in
  partial core-charges read in
  atomic valenz-charges read in
  non local Contribution for L=           2  read in
    real space projection operators read in
  non local Contribution for L=           2  read in
    real space projection operators read in
  non local Contribution for L=           0  read in
    real space projection operators read in
  non local Contribution for L=           0  read in
    real space projection operators read in
  non local Contribution for L=           1  read in
    real space projection operators read in
  non local Contribution for L=           1  read in
    real space projection operators read in
    PAW grid and wavefunctions read in
 
   number of l-projection  operators is LMAX  =           6
   number of lm-projection operators is LMMAX =          18
 
 POTCAR:    PAW_PBE S 17Jan2003                   
   VRHFIN =S : s2p4                                                             
   LEXCH  = PE                                                                  
   EATOM  =   276.8230 eV,   20.3459 Ry                                         
                                                                                
   TITEL  = PAW_PBE S 17Jan2003                                                 
   LULTRA =        F    use ultrasoft PP ?                                      
   IUNSCR =        1    unscreen: 0-lin 1-nonlin 2-no                           
   RPACOR =    1.500    partial core radius                                     
   POMASS =   32.066; ZVAL   =    6.000    mass and valenz                      
   RCORE  =    1.900    outmost cutoff radius                                   
   RWIGS  =    2.200; RWIGS  =    1.164    wigner-seitz radius (au A)           
   ENMAX  =  280.000; ENMIN  =  194.016 eV                                      
   ICORE  =        2    local potential                                         
   LCOR   =        T    correct aug charges                                     
   LPAW   =        T    paw PP                                                  
   EAUG   =  335.092                                                            
   DEXC   =     .000                                                            
   RMAX   =    2.867    core radius for proj-oper                               
   RAUG   =    1.300    factor for augmentation sphere                          
   RDEP   =    1.954    radius for radial grids                                 
   QCUT   =   -4.360; QGAM   =    8.721    optimization parameters              
                                                                                
   Description                                                                  
     l     E      TYP  RCUT    TYP  RCUT                                        
     0   .000     23  1.900                                                     
     0   .000     23  1.900                                                     
     1   .000     23  1.900                                                     
     1   .000     23  1.900                                                     
     2   .000     23  1.900                                                     
  local pseudopotential read in
  partial core-charges read in
  atomic valenz-charges read in
  non local Contribution for L=           0  read in
    real space projection operators read in
  non local Contribution for L=           0  read in
    real space projection operators read in
  non local Contribution for L=           1  read in
    real space projection operators read in
  non local Contribution for L=           1  read in
    real space projection operators read in
    PAW grid and wavefunctions read in
 
   number of l-projection  operators is LMAX  =           4
   number of lm-projection operators is LMMAX =           8
 
 WARNING: PSMAXN for non-local potential too small
          PSMAXN should be >   14.9363967919573       NTYP=           1
 PAW_PBE Mo 08Apr2002                   :
 energy of atom  1       EATOM= -217.5180
 kinetic energy error for atom=    0.0002 (will be added to EATOM!!)
  PAW_PBE S 17Jan2003                   :
 energy of atom  2       EATOM= -276.8230
 kinetic energy error for atom=    0.0004 (will be added to EATOM!!)
 
 
 POSCAR: MoS2_mp-2815_computed                   
  positions in direct lattice
  No initial velocities read in
 exchange correlation table for  LEXCH =        8
   RHO(1)=    0.500       N(1)  =     2000
   RHO(2)=  100.500       N(2)  =     4000
 


--------------------------------------------------------------------------------------------------------


 ion  position               nearest neighbor table
   1  0.333  0.667  0.250-   5 2.42   4 2.42   4 2.42   5 2.42   5 2.42   4 2.42
   2  0.667  0.333  0.750-   6 2.42   3 2.42   3 2.42   6 2.42   6 2.42   3 2.42
   3  0.333  0.667  0.855-   2 2.42   2 2.42   2 2.42
   4  0.667  0.333  0.145-   1 2.42   1 2.42   1 2.42
   5  0.667  0.333  0.355-   1 2.42   1 2.42   1 2.42
   6  0.333  0.667  0.645-   2 2.42   2 2.42   2 2.42
 
  LATTYP: Found a hexagonal cell.
 ALAT       =     3.1903157300
 C/A-ratio  =     4.6638030713
  
  Lattice vectors:
  
 A1 = (   3.1903157300,   0.0000000000,   0.0000000000)
 A2 = (  -1.5951578650,   2.7628944683,   0.0000000000)
 A3 = (   0.0000000000,   0.0000000000,  14.8790043000)


Analysis of symmetry for initial positions (statically):
=====================================================================
 Subroutine PRICEL returns:
 Original cell was already a primitive cell.
 

 Routine SETGRP: Setting up the symmetry group for a 
 hexagonal supercell.


 Subroutine GETGRP returns: Found 24 space group operations
 (whereof 12 operations were pure point group operations)
 out of a pool of 24 trial point group operations.


The static configuration has the point symmetry D_3d.
 The point group associated with its full space group is D_6h.


Analysis of symmetry for dynamics (positions and initial velocities):
=====================================================================
 Subroutine PRICEL returns:
 Original cell was already a primitive cell.
 

 Routine SETGRP: Setting up the symmetry group for a 
 hexagonal supercell.


 Subroutine GETGRP returns: Found 24 space group operations
 (whereof 12 operations were pure point group operations)
 out of a pool of 24 trial point group operations.


The dynamic configuration has the point symmetry D_3d.
 The point group associated with its full space group is D_6h.


 Subroutine INISYM returns: Found 24 space group operations
 (whereof 12 operations are pure point group operations),
 and found     1 'primitive' translations

 
 
 KPOINTS: k-density: 4.0                          

Automatic generation of k-mesh.
Space group operators:
 irot       det(A)        alpha          n_x          n_y          n_z        tau_x        tau_y        tau_z
    1     1.000000     0.000001     1.000000     0.000000     0.000000     0.000000     0.000000     0.000000
    2    -1.000000     0.000001     1.000000     0.000000     0.000000     0.000000     0.000000     0.000000
    3     1.000000   120.000000     0.000000     0.000000    -1.000000     0.000000     0.000000     0.000000
    4    -1.000000   120.000000     0.000000     0.000000    -1.000000     0.000000     0.000000     0.000000
    5     1.000000   120.000000     0.000000     0.000000     1.000000     0.000000     0.000000     0.000000
    6    -1.000000   120.000000     0.000000     0.000000     1.000000     0.000000     0.000000     0.000000
    7     1.000000   179.999999     1.000000    -0.000000     0.000000     0.000000     0.000000     0.000000
    8    -1.000000   179.999999     1.000000    -0.000000     0.000000     0.000000     0.000000     0.000000
    9     1.000000   180.000000     0.500000    -0.866025     0.000000     0.000000     0.000000     0.000000
   10    -1.000000   180.000000     0.500000    -0.866025     0.000000     0.000000     0.000000     0.000000
   11     1.000000   180.000000    -0.500000    -0.866025     0.000000     0.000000     0.000000     0.000000
   12    -1.000000   180.000000    -0.500000    -0.866025     0.000000     0.000000     0.000000     0.000000
   13     1.000000    60.000000     0.000000     0.000000    -1.000000     0.000001     0.000000     0.500000
   14    -1.000000    60.000000     0.000000     0.000000    -1.000000     0.000001     0.000000     0.500000
   15     1.000000   180.000000     0.000000     0.000000     1.000000     0.000000     0.000000     0.500000
   16    -1.000000   180.000000     0.000000     0.000000     1.000000     0.000000     0.000000     0.500000
   17     1.000000    60.000000     0.000000     0.000000     1.000000     0.000000     0.000000     0.500000
   18    -1.000000    60.000000     0.000000     0.000000     1.000000     0.000000     0.000000     0.500000
   19     1.000000   179.999999     0.866025    -0.500000     0.000000     0.000000     0.000000     0.500000
   20    -1.000000   179.999999     0.866025    -0.500000     0.000000     0.000000     0.000000     0.500000
   21     1.000000   180.000000     0.000000     1.000000     0.000000     0.000001     0.000000     0.500000
   22    -1.000000   180.000000     0.000000     1.000000     0.000000     0.000001     0.000000     0.500000
   23     1.000000   179.999999     0.866025     0.500000     0.000000     0.000000     0.000000     0.500000
   24    -1.000000   179.999999     0.866025     0.500000     0.000000     0.000000     0.000000     0.500000
 
 Subroutine IBZKPT returns following result:
 ===========================================
 
 Found     20 irreducible k-points:
 
 Following reciprocal coordinates:
            Coordinates               Weight
  0.000000  0.000000  0.000000      1.000000
  0.125000 -0.000000  0.000000      6.000000
  0.250000 -0.000000  0.000000      6.000000
  0.375000 -0.000000  0.000000      6.000000
  0.500000 -0.000000  0.000000      3.000000
  0.125000  0.125000  0.000000      6.000000
  0.250000  0.125000  0.000000     12.000000
  0.375000  0.125000  0.000000     12.000000
  0.250000  0.250000  0.000000      6.000000
  0.375000  0.250000  0.000000      6.000000
  0.000000  0.000000  0.500000      1.000000
  0.125000 -0.000000  0.500000      6.000000
  0.250000 -0.000000  0.500000      6.000000
  0.375000 -0.000000  0.500000      6.000000
  0.500000 -0.000000  0.500000      3.000000
  0.125000  0.125000  0.500000      6.000000
  0.250000  0.125000  0.500000     12.000000
  0.375000  0.125000  0.500000     12.000000
  0.250000  0.250000  0.500000      6.000000
  0.375000  0.250000  0.500000      6.000000
 
 Following cartesian coordinates:
            Coordinates               Weight
  0.000000  0.000000  0.000000      1.000000
  0.039181  0.022621  0.000000      6.000000
  0.078362  0.045242  0.000000      6.000000
  0.117543  0.067864  0.000000      6.000000
  0.156724  0.090485  0.000000      3.000000
  0.039181  0.067864  0.000000      6.000000
  0.078362  0.090485  0.000000     12.000000
  0.117543  0.113106  0.000000     12.000000
  0.078362  0.135727  0.000000      6.000000
  0.117543  0.158348  0.000000      6.000000
  0.000000  0.000000  0.033604      1.000000
  0.039181  0.022621  0.033604      6.000000
  0.078362  0.045242  0.033604      6.000000
  0.117543  0.067864  0.033604      6.000000
  0.156724  0.090485  0.033604      3.000000
  0.039181  0.067864  0.033604      6.000000
  0.078362  0.090485  0.033604     12.000000
  0.117543  0.113106  0.033604     12.000000
  0.078362  0.135727  0.033604      6.000000
  0.117543  0.158348  0.033604      6.000000
 
 TETIRR: Found    136 inequivalent tetrahedra from      768


--------------------------------------------------------------------------------------------------------




 Dimension of arrays:
   k-points           NKPTS =     20   k-points in BZ     NKDIM =     20   number of bands    NBANDS=     22
   number of dos      NEDOS =    301   number of ions     NIONS =      6
   non local maximal  LDIM  =      6   non local SUM 2l+1 LMDIM =     18
   total plane-waves  NPLWV =  62208
   max r-space proj   IRMAX =      1   max aug-charges    IRDMAX=  30650
   dimension x,y,z NGX =    24 NGY =   24 NGZ =  108
   dimension x,y,z NGXF=    48 NGYF=   48 NGZF=  216
   support grid    NGXF=    48 NGYF=   48 NGZF=  216
   ions per type =               2   4
   NGX,Y,Z   is equivalent  to a cutoff of  12.51, 12.51, 12.07 a.u.
   NGXF,Y,Z  is equivalent  to a cutoff of  25.01, 25.01, 24.13 a.u.

 SYSTEM =  unknown system                          
 POSCAR =  MoS2_mp-2815_computed                   

 Startparameter for this run:
   NWRITE =      2    write-flag & timer
   PREC   = normal    normal or accurate (medium, high low for compatibility)
   ISTART =      0    job   : 0-new  1-cont  2-samecut
   ICHARG =      2    charge: 1-file 2-atom 10-const
   ISPIN  =      1    spin polarized calculation?
   LNONCOLLINEAR =      F non collinear calculations
   LSORBIT =      F    spin-orbit coupling
   INIWAV =      1    electr: 0-lowe 1-rand  2-diag
   LASPH  =      F    aspherical Exc in radial PAW
   METAGGA=      F    non-selfconsistent MetaGGA calc.

 Electronic Relaxation 1
   ENCUT  =  850.0 eV  62.47 Ry    7.90 a.u.   7.58  7.58 35.37*2*pi/ulx,y,z
   ENINI  =  850.0     initial cutoff
   ENAUG  =  345.3 eV  augmentation charge cutoff
   NELM   =     60;   NELMIN=  4; NELMDL=  0     # of ELM steps 
   EDIFF  = 0.1E-04   stopping-criterion for ELM
   LREAL  =      F    real-space projection
   NLSPLINE    = F    spline interpolate recip. space projectors
   LCOMPAT=      F    compatible to vasp.4.4
   GGA_COMPAT  = T    GGA compatible to vasp.4.4-vasp.4.6
   LMAXPAW     = -100 max onsite density
   LMAXMIX     =    2 max onsite mixed and CHGCAR
   VOSKOWN=      0    Vosko Wilk Nusair interpolation
   ROPT   =    0.00000   0.00000
 Ionic relaxation
   EDIFFG = 0.1E-03   stopping-criterion for IOM
   NSW    =      0    number of steps for IOM
   NBLOCK =      1;   KBLOCK =      1    inner block; outer block 
   IBRION =     -1    ionic relax: 0-MD 1-quasi-New 2-CG
   NFREE  =      0    steps in history (QN), initial steepest desc. (CG)
   ISIF   =      2    stress and relaxation
   IWAVPR =     10    prediction:  0-non 1-charg 2-wave 3-comb
   ISYM   =      2    0-nonsym 1-usesym 2-fastsym
   LCORR  =      T    Harris-Foulkes like correction to forces

   POTIM  = 0.5000    time-step for ionic-motion
   TEIN   =    0.0    initial temperature
   TEBEG  =    0.0;   TEEND  =   0.0 temperature during run
   SMASS  =  -3.00    Nose mass-parameter (am)
   estimated Nose-frequenzy (Omega)   =  0.10E-29 period in steps =****** mass=  -0.233E-27a.u.
   SCALEE = 1.0000    scale energy and forces
   NPACO  =    256;   APACO  = 16.0  distance and # of slots for P.C.
   PSTRESS=    0.0 pullay stress

  Mass of Ions in am
   POMASS =  95.94 32.07
  Ionic Valenz
   ZVAL   =   6.00  6.00
  Atomic Wigner-Seitz radii
   RWIGS  =  -1.00 -1.00
  virtual crystal weights 
   VCA    =   1.00  1.00
   NELECT =      36.0000    total number of electrons
   NUPDOWN=      -1.0000    fix difference up-down

 DOS related values:
   EMIN   =  10.00;   EMAX   =-10.00  energy-range for DOS
   EFERMI =   0.00
   ISMEAR =    -5;   SIGMA  =   0.20  broadening in eV -4-tet -1-fermi 0-gaus

 Electronic relaxation 2 (details)
   IALGO  =     68    algorithm
   LDIAG  =      T    sub-space diagonalisation (order eigenvalues)
   LSUBROT=      F    optimize rotation matrix (better conditioning)
   TURBO    =      0    0=normal 1=particle mesh
   IRESTART =      0    0=no restart 2=restart with 2 vectors
   NREBOOT  =      0    no. of reboots
   NMIN     =      0    reboot dimension
   EREF     =   0.00    reference energy to select bands
   IMIX   =      4    mixing-type and parameters
     AMIX     =   0.40;   BMIX     =  1.00
     AMIX_MAG =   1.60;   BMIX_MAG =  1.00
     AMIN     =   0.10
     WC   =   100.;   INIMIX=   1;  MIXPRE=   1;  MAXMIX= -45

 Intra band minimization:
   WEIMIN = 0.0000     energy-eigenvalue tresh-hold
   EBREAK =  0.11E-06  absolut break condition
   DEPER  =   0.30     relativ break condition  

   TIME   =   0.40     timestep for ELM

  volume/ion in A,a.u.               =      21.86       147.51
  Fermi-wavevector in a.u.,A,eV,Ry     =   1.063943  2.010561 15.401453  1.131975
  Thomas-Fermi vector in A             =   2.199445
 
 Write flags
   LWAVE        =      F    write WAVECAR
   LDOWNSAMPLE  =      F    k-point downsampling of WAVECAR
   LCHARG       =      T    write CHGCAR
   LVTOT        =      F    write LOCPOT, total local potential
   LVHAR        =      F    write LOCPOT, Hartree potential only
   LELF         =      F    write electronic localiz. function (ELF)
   LORBIT       =      0    0 simple, 1 ext, 2 COOP (PROOUT), +10 PAW based schemes


 Dipole corrections
   LMONO  =      F    monopole corrections only (constant potential shift)
   LDIPOL =      F    correct potential (dipole corrections)
   IDIPOL =      0    1-x, 2-y, 3-z, 4-all directions 
   EPSILON=  1.0000000 bulk dielectric constant

 Exchange correlation treatment:
   GGA     =    --    GGA type
   LEXCH   =     8    internal setting for exchange type
   VOSKOWN=      0    Vosko Wilk Nusair interpolation
   LHFCALC =     F    Hartree Fock is set to
   LHFONE  =     F    Hartree Fock one center treatment
   AEXX    =    0.0000 exact exchange contribution

 Linear response parameters
   LEPSILON=     F    determine dielectric tensor
   LRPA    =     F    only Hartree local field effects (RPA)
   LNABLA  =     F    use nabla operator in PAW spheres
   LVEL    =     F    velocity operator in full k-point grid
   LINTERFAST=   F  fast interpolation
   KINTER  =     0    interpolate to denser k-point grid
   CSHIFT  =0.1000    complex shift for real part using Kramers Kronig
   OMEGAMAX=  -1.0    maximum frequency
   DEG_THRESHOLD= 0.2000000E-02 threshold for treating states as degnerate
   RTIME   =   -0.100 relaxation time in fs
  (WPLASMAI=    0.000 imaginary part of plasma frequency in eV, 0.658/RTIME)
   DFIELD  = 0.0000000 0.0000000 0.0000000 field for delta impulse in time
 
 Orbital magnetization related:
   ORBITALMAG=     F  switch on orbital magnetization
   LCHIMAG   =     F  perturbation theory with respect to B field
   DQ        =  0.001000  dq finite difference perturbation B field
   LLRAUG    =     F  two centre corrections for induced B field



--------------------------------------------------------------------------------------------------------


 Static calculation
 charge density and potential will be updated during run
 non-spin polarized calculation
 RMM-DIIS sequential band-by-band and
  variant of blocked Davidson during initial phase
 perform sub-space diagonalisation
    before iterative eigenvector-optimisation
 modified Broyden-mixing scheme, WC =      100.0
 initial mixing is a Kerker type mixing with AMIX =  0.4000 and BMIX =      1.0000
 Hartree-type preconditioning will be used
 using additional bands            4
 reciprocal scheme for non local part
 use partial core corrections
 calculate Harris-corrections to forces 
   (improved forces if not selfconsistent)
 use gradient corrections 
 use of overlap-Matrix (Vanderbilt PP)
 Fermi weights with tetrahedron method with Bloechl corrections


--------------------------------------------------------------------------------------------------------


  energy-cutoff  :      850.00
  volume of cell :      131.15
      direct lattice vectors                 reciprocal lattice vectors
     3.190315730  0.000000000  0.000000000     0.313448600  0.180969634  0.000000000
    -1.595157865  2.762894468  0.000000000     0.000000000  0.361939267  0.000000000
     0.000000000  0.000000000 14.879004300     0.000000000  0.000000000  0.067208798

  length of vectors
     3.190315730  3.190315730 14.879004300     0.361939267  0.361939267  0.067208798


 
 k-points in units of 2pi/SCALE and weight: k-density: 4.0                          
   0.00000000  0.00000000  0.00000000       0.008
   0.03918108  0.02262120  0.00000000       0.047
   0.07836215  0.04524241  0.00000000       0.047
   0.11754323  0.06786361  0.00000000       0.047
   0.15672430  0.09048482  0.00000000       0.023
   0.03918108  0.06786361  0.00000000       0.047
   0.07836215  0.09048482  0.00000000       0.094
   0.11754323  0.11310602  0.00000000       0.094
   0.07836215  0.13572723  0.00000000       0.047
   0.11754323  0.15834843  0.00000000       0.047
   0.00000000  0.00000000  0.03360440       0.008
   0.03918108  0.02262120  0.03360440       0.047
   0.07836215  0.04524241  0.03360440       0.047
   0.11754323  0.06786361  0.03360440       0.047
   0.15672430  0.09048482  0.03360440       0.023
   0.03918108  0.06786361  0.03360440       0.047
   0.07836215  0.09048482  0.03360440       0.094
   0.11754323  0.11310602  0.03360440       0.094
   0.07836215  0.13572723  0.03360440       0.047
   0.11754323  0.15834843  0.03360440       0.047
 
 k-points in reciprocal lattice and weights: k-density: 4.0                          
   0.00000000  0.00000000  0.00000000       0.008
   0.12500000 -0.00000000  0.00000000       0.047
   0.25000000 -0.00000000  0.00000000       0.047
   0.37500000 -0.00000000  0.00000000       0.047
   0.50000000 -0.00000000  0.00000000       0.023
   0.12500000  0.12500000  0.00000000       0.047
   0.25000000  0.12500000  0.00000000       0.094
   0.37500000  0.12500000  0.00000000       0.094
   0.25000000  0.25000000  0.00000000       0.047
   0.37500000  0.25000000  0.00000000       0.047
   0.00000000  0.00000000  0.50000000       0.008
   0.12500000 -0.00000000  0.50000000       0.047
   0.25000000 -0.00000000  0.50000000       0.047
   0.37500000 -0.00000000  0.50000000       0.047
   0.50000000 -0.00000000  0.50000000       0.023
   0.12500000  0.12500000  0.50000000       0.047
   0.25000000  0.12500000  0.50000000       0.094
   0.37500000  0.12500000  0.50000000       0.094
   0.25000000  0.25000000  0.50000000       0.047
   0.37500000  0.25000000  0.50000000       0.047
 
 position of ions in fractional coordinates (direct lattice) 
   0.33333300  0.66666700  0.25000000
   0.66666700  0.33333300  0.75000000
   0.33333300  0.66666700  0.85517400
   0.66666700  0.33333300  0.14482600
   0.66666600  0.33333300  0.35517400
   0.33333400  0.66666700  0.64482600
 
 position of ions in cartesian coordinates  (Angst):
  -0.00000160  1.84193057  3.71975108
   1.59515946  0.92096390 11.15925323
  -0.00000160  1.84193057 12.72413762
   1.59515946  0.92096390  2.15486668
   1.59515627  0.92096390  5.28463547
   0.00000160  1.84193057  9.59436883
 


--------------------------------------------------------------------------------------------------------


 k-point  1 :   0.0000 0.0000 0.0000  plane waves:    7397
 k-point  2 :   0.1250-0.0000 0.0000  plane waves:    7407
 k-point  3 :   0.2500-0.0000 0.0000  plane waves:    7409
 k-point  4 :   0.3750-0.0000 0.0000  plane waves:    7375
 k-point  5 :   0.5000-0.0000 0.0000  plane waves:    7394
 k-point  6 :   0.1250 0.1250 0.0000  plane waves:    7409
 k-point  7 :   0.2500 0.1250 0.0000  plane waves:    7384
 k-point  8 :   0.3750 0.1250 0.0000  plane waves:    7373
 k-point  9 :   0.2500 0.2500 0.0000  plane waves:    7356
 k-point 10 :   0.3750 0.2500 0.0000  plane waves:    7342
 k-point 11 :   0.0000 0.0000 0.5000  plane waves:    7378
 k-point 12 :   0.1250-0.0000 0.5000  plane waves:    7422
 k-point 13 :   0.2500-0.0000 0.5000  plane waves:    7408
 k-point 14 :   0.3750-0.0000 0.5000  plane waves:    7378
 k-point 15 :   0.5000-0.0000 0.5000  plane waves:    7360
 k-point 16 :   0.1250 0.1250 0.5000  plane waves:    7396
 k-point 17 :   0.2500 0.1250 0.5000  plane waves:    7386
 k-point 18 :   0.3750 0.1250 0.5000  plane waves:    7364
 k-point 19 :   0.2500 0.2500 0.5000  plane waves:    7342
 k-point 20 :   0.3750 0.2500 0.5000  plane waves:    7354

 maximum and minimum number of plane-waves per node :      3713     3659

 maximum number of plane-waves:      7422
 maximum index in each direction: 
   IXMAX=    7   IYMAX=    7   IZMAX=   35
   IXMIN=   -8   IYMIN=   -7   IZMIN=  -35


 parallel 3D FFT for wavefunctions:
    minimum data exchange during FFTs selected (reduces bandwidth)
 parallel 3D FFT for charge:
    minimum data exchange during FFTs selected (reduces bandwidth)


 total amount of memory used by VASP MPI-rank0    78369. kBytes
=======================================================================

   base      :      30000. kBytes
   nonl-proj :      21725. kBytes
   fftplans  :       5158. kBytes
   grid      :       8262. kBytes
   one-center:         46. kBytes
   wavefun   :      13178. kBytes
 
     INWAV:  cpu time    0.0000: real time    0.0000
 Broyden mixing: mesh for mixing (old mesh)
   NGX = 15   NGY = 15   NGZ = 71
  (NGX  = 48   NGY  = 48   NGZ  =216)
  gives a total of  15975 points

 initial charge density was supplied:
 charge density of overlapping atoms calculated
 number of electron      36.0000000 magnetization 
 keeping initial charge density in first step


--------------------------------------------------------------------------------------------------------


 Maximum index for augmentation-charges         7425 (set IRDMAX)


--------------------------------------------------------------------------------------------------------


 First call to EWALD:  gamma=   0.349
 Maximum number of real-space cells 5x 5x 1
 Maximum number of reciprocal cells 2x 2x 7

    FEWALD:  cpu time    0.0020: real time    0.0016


--------------------------------------- Iteration      1(   1)  ---------------------------------------


    POTLOK:  cpu time    0.0760: real time    0.1220
    SETDIJ:  cpu time    0.0080: real time    0.0079
     EDDAV:  cpu time    1.3778: real time    1.3828
 BZINTS: Fermi energy: 17.241813; 36.000000 electrons
         Band energy: 244.578409;  BLOECHL correction: -0.327379
       DOS:  cpu time    0.0050: real time    0.0053
    --------------------------------------------
      LOOP:  cpu time    1.4668: real time    1.5179

 eigenvalue-minimisations  :   880
 total energy-change (2. order) : 0.2778368E+03  (-0.2062283E+04)
 number of electron      36.0000000 magnetization 
 augmentation part       36.0000000 magnetization 

 Free energy of the ion-electron system (eV)
  ---------------------------------------------------
  alpha Z        PSCENC =        90.42577596
  Ewald energy   TEWEN  =     -1146.88905665
  -Hartree energ DENC   =      -535.10238363
  -exchange      EXHF   =         0.00000000
  -V(xc)+E(xc)   XCENC  =       -72.59368065
  PAW double counting   =       813.77302396     -658.68146406
  entropy T*S    EENTRO =         0.00000000
  eigenvalues    EBANDS =       244.57840926
  atomic energy  EATOM  =      1542.32615392
  Solvation  Ediel_sol  =         0.00000000
  ---------------------------------------------------
  free energy    TOTEN  =       277.83677812 eV

  energy without entropy =      277.83677812  energy(sigma->0) =      277.83677812


--------------------------------------------------------------------------------------------------------




--------------------------------------- Iteration      1(   2)  ---------------------------------------


     EDDAV:  cpu time    1.7297: real time    1.7347
 BZINTS: Fermi energy:  6.113724; 36.000000 electrons
         Band energy: -52.244576;  BLOECHL correction: -0.000661
       DOS:  cpu time    0.0050: real time    0.0045
    --------------------------------------------
      LOOP:  cpu time    1.7347: real time    1.7392

 eigenvalue-minimisations  :  1184
 total energy-change (2. order) :-0.2968230E+03  (-0.2892092E+03)
 number of electron      36.0000000 magnetization 
 augmentation part       36.0000000 magnetization 

 Free energy of the ion-electron system (eV)
  ---------------------------------------------------
  alpha Z        PSCENC =        90.42577596
  Ewald energy   TEWEN  =     -1146.88905665
  -Hartree energ DENC   =      -535.10238363
  -exchange      EXHF   =         0.00000000
  -V(xc)+E(xc)   XCENC  =       -72.59368065
  PAW double counting   =       813.77302396     -658.68146406
  entropy T*S    EENTRO =         0.00000000
  eigenvalues    EBANDS =       -52.24457576
  atomic energy  EATOM  =      1542.32615392
  Solvation  Ediel_sol  =         0.00000000
  ---------------------------------------------------
  free energy    TOTEN  =       -18.98620689 eV

  energy without entropy =      -18.98620689  energy(sigma->0) =      -18.98620689


--------------------------------------------------------------------------------------------------------




--------------------------------------- Iteration      1(   3)  ---------------------------------------


     EDDAV:  cpu time    1.8057: real time    1.8086
 BZINTS: Fermi energy:  4.006869; 36.000000 electrons
         Band energy: -79.249213;  BLOECHL correction:  0.000000
       DOS:  cpu time    0.0010: real time    0.0013
    --------------------------------------------
      LOOP:  cpu time    1.8067: real time    1.8099

 eigenvalue-minimisations  :  1242
 total energy-change (2. order) :-0.2700464E+02  (-0.2686502E+02)
 number of electron      36.0000000 magnetization 
 augmentation part       36.0000000 magnetization 

 Free energy of the ion-electron system (eV)
  ---------------------------------------------------
  alpha Z        PSCENC =        90.42577596
  Ewald energy   TEWEN  =     -1146.88905665
  -Hartree energ DENC   =      -535.10238363
  -exchange      EXHF   =         0.00000000
  -V(xc)+E(xc)   XCENC  =       -72.59368065
  PAW double counting   =       813.77302396     -658.68146406
  entropy T*S    EENTRO =         0.00000000
  eigenvalues    EBANDS =       -79.24921327
  atomic energy  EATOM  =      1542.32615392
  Solvation  Ediel_sol  =         0.00000000
  ---------------------------------------------------
  free energy    TOTEN  =       -45.99084440 eV

  energy without entropy =      -45.99084440  energy(sigma->0) =      -45.99084440


--------------------------------------------------------------------------------------------------------




--------------------------------------- Iteration      1(   4)  ---------------------------------------


     EDDAV:  cpu time    1.7327: real time    1.7352
 BZINTS: Fermi energy:  3.932540; 36.000000 electrons
         Band energy: -80.056799;  BLOECHL correction:  0.000000
       DOS:  cpu time    0.0010: real time    0.0013
    --------------------------------------------
      LOOP:  cpu time    1.7337: real time    1.7365

 eigenvalue-minimisations  :  1182
 total energy-change (2. order) :-0.8075856E+00  (-0.8060369E+00)
 number of electron      36.0000000 magnetization 
 augmentation part       36.0000000 magnetization 

 Free energy of the ion-electron system (eV)
  ---------------------------------------------------
  alpha Z        PSCENC =        90.42577596
  Ewald energy   TEWEN  =     -1146.88905665
  -Hartree energ DENC   =      -535.10238363
  -exchange      EXHF   =         0.00000000
  -V(xc)+E(xc)   XCENC  =       -72.59368065
  PAW double counting   =       813.77302396     -658.68146406
  entropy T*S    EENTRO =         0.00000000
  eigenvalues    EBANDS =       -80.05679888
  atomic energy  EATOM  =      1542.32615392
  Solvation  Ediel_sol  =         0.00000000
  ---------------------------------------------------
  free energy    TOTEN  =       -46.79843002 eV

  energy without entropy =      -46.79843002  energy(sigma->0) =      -46.79843002


--------------------------------------------------------------------------------------------------------




--------------------------------------- Iteration      1(   5)  ---------------------------------------


     EDDAV:  cpu time    1.7677: real time    1.7710
 BZINTS: Fermi energy:  3.857583; 36.000000 electrons
         Band energy: -80.082639;  BLOECHL correction:  0.000000
       DOS:  cpu time    0.0020: real time    0.0012
    CHARGE:  cpu time    0.0950: real time    0.0950
    MIXING:  cpu time    0.0020: real time    0.0026
    --------------------------------------------
      LOOP:  cpu time    1.8667: real time    1.8698

 eigenvalue-minimisations  :  1216
 total energy-change (2. order) :-0.2584002E-01  (-0.2583413E-01)
 number of electron      36.0000005 magnetization 
 augmentation part       -1.8892602 magnetization 

 Broyden mixing:
  rms(total) = 0.97360E+00    rms(broyden)= 0.97360E+00
  rms(prec ) = 0.12181E+01
  weight for this iteration     100.00

 Free energy of the ion-electron system (eV)
  ---------------------------------------------------
  alpha Z        PSCENC =        90.42577596
  Ewald energy   TEWEN  =     -1146.88905665
  -Hartree energ DENC   =      -535.10238363
  -exchange      EXHF   =         0.00000000
  -V(xc)+E(xc)   XCENC  =       -72.59368065
  PAW double counting   =       813.77302396     -658.68146406
  entropy T*S    EENTRO =         0.00000000
  eigenvalues    EBANDS =       -80.08263890
  atomic energy  EATOM  =      1542.32615392
  Solvation  Ediel_sol  =         0.00000000
  ---------------------------------------------------
  free energy    TOTEN  =       -46.82427003 eV

  energy without entropy =      -46.82427003  energy(sigma->0) =      -46.82427003


--------------------------------------------------------------------------------------------------------




--------------------------------------- Iteration      1(   6)  ---------------------------------------


    POTLOK:  cpu time    0.0760: real time    0.0793
    SETDIJ:  cpu time    0.0070: real time    0.0073
    EDDIAG:  cpu time    0.2210: real time    0.2308
  RMM-DIIS:  cpu time    1.2148: real time    1.2139
    ORTHCH:  cpu time    0.0250: real time    0.0246
 BZINTS: Fermi energy:  2.883095; 36.000000 electrons
         Band energy: -79.182477;  BLOECHL correction:  0.000000
       DOS:  cpu time    0.0010: real time    0.0012
    CHARGE:  cpu time    0.0950: real time    0.0948
    MIXING:  cpu time    0.0020: real time    0.0023
    --------------------------------------------
      LOOP:  cpu time    1.6418: real time    1.6542

 eigenvalue-minimisations  :   983
 total energy-change (2. order) : 0.2383968E+01  (-0.2439336E+01)
 number of electron      36.0000005 magnetization 
 augmentation part       -0.8581636 magnetization 

 Broyden mixing:
  rms(total) = 0.33753E+00    rms(broyden)= 0.33753E+00
  rms(prec ) = 0.49444E+00
  weight for this iteration     100.00

 eigenvalues of (default mixing * dielectric matrix)
  average eigenvalue GAMMA=   0.8732
  0.8732

 Free energy of the ion-electron system (eV)
  ---------------------------------------------------
  alpha Z        PSCENC =        90.42577596
  Ewald energy   TEWEN  =     -1146.88905665
  -Hartree energ DENC   =      -533.61007841
  -exchange      EXHF   =         0.00000000
  -V(xc)+E(xc)   XCENC  =       -70.82328843
  PAW double counting   =       847.66358481     -694.35091653
  entropy T*S    EENTRO =         0.00000000
  eigenvalues    EBANDS =       -79.18247691
  atomic energy  EATOM  =      1542.32615392
  Solvation  Ediel_sol  =         0.00000000
  ---------------------------------------------------
  free energy    TOTEN  =       -44.44030223 eV

  energy without entropy =      -44.44030223  energy(sigma->0) =      -44.44030223


--------------------------------------------------------------------------------------------------------




--------------------------------------- Iteration      1(   7)  ---------------------------------------


    POTLOK:  cpu time    0.0760: real time    0.0793
    SETDIJ:  cpu time    0.0070: real time    0.0072
    EDDIAG:  cpu time    0.2210: real time    0.2206
  RMM-DIIS:  cpu time    1.1868: real time    1.1874
    ORTHCH:  cpu time    0.0240: real time    0.0245
 BZINTS: Fermi energy:  3.216450; 36.000000 electrons
         Band energy: -73.423202;  BLOECHL correction:  0.000000
       DOS:  cpu time    0.0020: real time    0.0013
    CHARGE:  cpu time    0.0950: real time    0.0950
    MIXING:  cpu time    0.0030: real time    0.0025
    --------------------------------------------
      LOOP:  cpu time    1.6148: real time    1.6176

 eigenvalue-minimisations  :   959
 total energy-change (2. order) : 0.7412847E+00  (-0.1980369E+00)
 number of electron      36.0000005 magnetization 
 augmentation part       -1.1110315 magnetization 

 Broyden mixing:
  rms(total) = 0.17871E+00    rms(broyden)= 0.17871E+00
  rms(prec ) = 0.21338E+00
  weight for this iteration     100.00

 eigenvalues of (default mixing * dielectric matrix)
  average eigenvalue GAMMA=   1.4068
  0.7575  2.0561

 Free energy of the ion-electron system (eV)
  ---------------------------------------------------
  alpha Z        PSCENC =        90.42577596
  Ewald energy   TEWEN  =     -1146.88905665
  -Hartree energ DENC   =      -537.93995065
  -exchange      EXHF   =         0.00000000
  -V(xc)+E(xc)   XCENC  =       -71.01595084
  PAW double counting   =       880.83941639     -728.02220360
  entropy T*S    EENTRO =         0.00000000
  eigenvalues    EBANDS =       -73.42320202
  atomic energy  EATOM  =      1542.32615392
  Solvation  Ediel_sol  =         0.00000000
  ---------------------------------------------------
  free energy    TOTEN  =       -43.69901749 eV

  energy without entropy =      -43.69901749  energy(sigma->0) =      -43.69901749


--------------------------------------------------------------------------------------------------------




--------------------------------------- Iteration      1(   8)  ---------------------------------------


    POTLOK:  cpu time    0.0740: real time    0.0783
    SETDIJ:  cpu time    0.0080: real time    0.0071
    EDDIAG:  cpu time    0.2200: real time    0.2202
  RMM-DIIS:  cpu time    1.2498: real time    1.2491
    ORTHCH:  cpu time    0.0230: real time    0.0245
 BZINTS: Fermi energy:  3.319667; 36.000000 electrons
         Band energy: -68.491156;  BLOECHL correction: -0.000000
       DOS:  cpu time    0.0020: real time    0.0012
    CHARGE:  cpu time    0.0950: real time    0.0952
    MIXING:  cpu time    0.0030: real time    0.0033
    --------------------------------------------
      LOOP:  cpu time    1.6747: real time    1.6789

 eigenvalue-minimisations  :  1004
 total energy-change (2. order) : 0.6255615E-01  (-0.9020916E-01)
 number of electron      36.0000005 magnetization 
 augmentation part       -1.1694907 magnetization 

 Broyden mixing:
  rms(total) = 0.84101E-01    rms(broyden)= 0.84101E-01
  rms(prec ) = 0.11237E+00
  weight for this iteration     100.00

 eigenvalues of (default mixing * dielectric matrix)
  average eigenvalue GAMMA=   1.4776
  2.1246  1.4886  0.8196

 Free energy of the ion-electron system (eV)
  ---------------------------------------------------
  alpha Z        PSCENC =        90.42577596
  Ewald energy   TEWEN  =     -1146.88905665
  -Hartree energ DENC   =      -542.20872756
  -exchange      EXHF   =         0.00000000
  -V(xc)+E(xc)   XCENC  =       -70.63048224
  PAW double counting   =       931.04339397     -779.21236249
  entropy T*S    EENTRO =         0.00000000
  eigenvalues    EBANDS =       -68.49115626
  atomic energy  EATOM  =      1542.32615392
  Solvation  Ediel_sol  =         0.00000000
  ---------------------------------------------------
  free energy    TOTEN  =       -43.63646134 eV

  energy without entropy =      -43.63646134  energy(sigma->0) =      -43.63646134


--------------------------------------------------------------------------------------------------------




--------------------------------------- Iteration      1(   9)  ---------------------------------------


    POTLOK:  cpu time    0.0740: real time    0.0777
    SETDIJ:  cpu time    0.0070: real time    0.0071
    EDDIAG:  cpu time    0.2200: real time    0.2202
  RMM-DIIS:  cpu time    1.3018: real time    1.3005
    ORTHCH:  cpu time    0.0240: real time    0.0247
 BZINTS: Fermi energy:  3.242333; 36.000000 electrons
         Band energy: -68.925479;  BLOECHL correction:  0.000000
       DOS:  cpu time    0.0010: real time    0.0013
    CHARGE:  cpu time    0.0950: real time    0.0949
    MIXING:  cpu time    0.0030: real time    0.0028
    --------------------------------------------
      LOOP:  cpu time    1.7257: real time    1.7293

 eigenvalue-minimisations  :  1041
 total energy-change (2. order) : 0.1116416E-01  (-0.2925672E-01)
 number of electron      36.0000005 magnetization 
 augmentation part       -1.0436677 magnetization 

 Broyden mixing:
  rms(total) = 0.56504E-01    rms(broyden)= 0.56504E-01
  rms(prec ) = 0.78596E-01
  weight for this iteration     100.00

 eigenvalues of (default mixing * dielectric matrix)
  average eigenvalue GAMMA=   1.5271
  2.1483  2.1483  0.9059  0.9059

 Free energy of the ion-electron system (eV)
  ---------------------------------------------------
  alpha Z        PSCENC =        90.42577596
  Ewald energy   TEWEN  =     -1146.88905665
  -Hartree energ DENC   =      -541.84801522
  -exchange      EXHF   =         0.00000000
  -V(xc)+E(xc)   XCENC  =       -70.37032804
  PAW double counting   =       937.75457739     -786.09892523
  entropy T*S    EENTRO =         0.00000000
  eigenvalues    EBANDS =       -68.92547933
  atomic energy  EATOM  =      1542.32615392
  Solvation  Ediel_sol  =         0.00000000
  ---------------------------------------------------
  free energy    TOTEN  =       -43.62529718 eV

  energy without entropy =      -43.62529718  energy(sigma->0) =      -43.62529718


--------------------------------------------------------------------------------------------------------




--------------------------------------- Iteration      1(  10)  ---------------------------------------


    POTLOK:  cpu time    0.0740: real time    0.0767
    SETDIJ:  cpu time    0.0080: real time    0.0072
    EDDIAG:  cpu time    0.2190: real time    0.2200
  RMM-DIIS:  cpu time    1.3118: real time    1.3109
    ORTHCH:  cpu time    0.0240: real time    0.0245
 BZINTS: Fermi energy:  3.308678; 36.000000 electrons
         Band energy: -68.026690;  BLOECHL correction:  0.000000
       DOS:  cpu time    0.0020: real time    0.0013
    CHARGE:  cpu time    0.0950: real time    0.0952
    MIXING:  cpu time    0.0030: real time    0.0025
    --------------------------------------------
      LOOP:  cpu time    1.7367: real time    1.7382

 eigenvalue-minimisations  :  1045
 total energy-change (2. order) : 0.1549621E-01  (-0.6608511E-02)
 number of electron      36.0000005 magnetization 
 augmentation part       -1.1049883 magnetization 

 Broyden mixing:
  rms(total) = 0.85174E-02    rms(broyden)= 0.85174E-02
  rms(prec ) = 0.10943E-01
  weight for this iteration     100.00

 eigenvalues of (default mixing * dielectric matrix)
  average eigenvalue GAMMA=   1.4313
  2.4520  1.6262  0.8834  0.8834  1.3112

 Free energy of the ion-electron system (eV)
  ---------------------------------------------------
  alpha Z        PSCENC =        90.42577596
  Ewald energy   TEWEN  =     -1146.88905665
  -Hartree energ DENC   =      -542.63656547
  -exchange      EXHF   =         0.00000000
  -V(xc)+E(xc)   XCENC  =       -70.42300442
  PAW double counting   =       943.67008254     -792.05649714
  entropy T*S    EENTRO =         0.00000000
  eigenvalues    EBANDS =       -68.02668972
  atomic energy  EATOM  =      1542.32615392
  Solvation  Ediel_sol  =         0.00000000
  ---------------------------------------------------
  free energy    TOTEN  =       -43.60980097 eV

  energy without entropy =      -43.60980097  energy(sigma->0) =      -43.60980097


--------------------------------------------------------------------------------------------------------




--------------------------------------- Iteration      1(  11)  ---------------------------------------


    POTLOK:  cpu time    0.0710: real time    0.0737
    SETDIJ:  cpu time    0.0080: real time    0.0070
    EDDIAG:  cpu time    0.2190: real time    0.2204
  RMM-DIIS:  cpu time    1.3508: real time    1.3492
    ORTHCH:  cpu time    0.0240: real time    0.0243
 BZINTS: Fermi energy:  3.304462; 36.000000 electrons
         Band energy: -67.906356;  BLOECHL correction:  0.000000
       DOS:  cpu time    0.0010: real time    0.0012
    CHARGE:  cpu time    0.0950: real time    0.0947
    MIXING:  cpu time    0.0030: real time    0.0029
    --------------------------------------------
      LOOP:  cpu time    1.7717: real time    1.7735

 eigenvalue-minimisations  :  1098
 total energy-change (2. order) : 0.4620100E-04  (-0.2802911E-03)
 number of electron      36.0000005 magnetization 
 augmentation part       -1.0983891 magnetization 

 Broyden mixing:
  rms(total) = 0.29444E-02    rms(broyden)= 0.29444E-02
  rms(prec ) = 0.35857E-02
  weight for this iteration     100.00

 eigenvalues of (default mixing * dielectric matrix)
  average eigenvalue GAMMA=   1.6483
  2.6633  2.6633  1.8185  0.8902  0.8902  0.9643

 Free energy of the ion-electron system (eV)
  ---------------------------------------------------
  alpha Z        PSCENC =        90.42577596
  Ewald energy   TEWEN  =     -1146.88905665
  -Hartree energ DENC   =      -542.77540381
  -exchange      EXHF   =         0.00000000
  -V(xc)+E(xc)   XCENC  =       -70.39564363
  PAW double counting   =       943.96009261     -792.35531724
  entropy T*S    EENTRO =         0.00000000
  eigenvalues    EBANDS =       -67.90635594
  atomic energy  EATOM  =      1542.32615392
  Solvation  Ediel_sol  =         0.00000000
  ---------------------------------------------------
  free energy    TOTEN  =       -43.60975477 eV

  energy without entropy =      -43.60975477  energy(sigma->0) =      -43.60975477


--------------------------------------------------------------------------------------------------------




--------------------------------------- Iteration      1(  12)  ---------------------------------------


    POTLOK:  cpu time    0.0750: real time    0.0783
    SETDIJ:  cpu time    0.0080: real time    0.0071
    EDDIAG:  cpu time    0.2200: real time    0.2203
  RMM-DIIS:  cpu time    1.3608: real time    1.3600
    ORTHCH:  cpu time    0.0240: real time    0.0245
 BZINTS: Fermi energy:  3.308004; 36.000000 electrons
         Band energy: -67.731512;  BLOECHL correction:  0.000000
       DOS:  cpu time    0.0010: real time    0.0012
    CHARGE:  cpu time    0.0950: real time    0.0950
    MIXING:  cpu time    0.0030: real time    0.0032
    --------------------------------------------
      LOOP:  cpu time    1.7867: real time    1.7895

 eigenvalue-minimisations  :  1111
 total energy-change (2. order) :-0.1479152E-03  (-0.5389313E-04)
 number of electron      36.0000005 magnetization 
 augmentation part       -1.0965532 magnetization 

 Broyden mixing:
  rms(total) = 0.21422E-02    rms(broyden)= 0.21422E-02
  rms(prec ) = 0.27125E-02
  weight for this iteration     100.00

 eigenvalues of (default mixing * dielectric matrix)
  average eigenvalue GAMMA=   1.5946
  2.9484  2.3767  1.5651  1.5651  0.8918  0.8918  0.9235

 Free energy of the ion-electron system (eV)
  ---------------------------------------------------
  alpha Z        PSCENC =        90.42577596
  Ewald energy   TEWEN  =     -1146.88905665
  -Hartree energ DENC   =      -542.97414283
  -exchange      EXHF   =         0.00000000
  -V(xc)+E(xc)   XCENC  =       -70.38552498
  PAW double counting   =       943.62205577     -792.00365166
  entropy T*S    EENTRO =         0.00000000
  eigenvalues    EBANDS =       -67.73151224
  atomic energy  EATOM  =      1542.32615392
  Solvation  Ediel_sol  =         0.00000000
  ---------------------------------------------------
  free energy    TOTEN  =       -43.60990269 eV

  energy without entropy =      -43.60990269  energy(sigma->0) =      -43.60990269


--------------------------------------------------------------------------------------------------------




--------------------------------------- Iteration      1(  13)  ---------------------------------------


    POTLOK:  cpu time    0.0770: real time    0.0801
    SETDIJ:  cpu time    0.0080: real time    0.0073
    EDDIAG:  cpu time    0.2200: real time    0.2206
  RMM-DIIS:  cpu time    1.3808: real time    1.3804
    ORTHCH:  cpu time    0.0240: real time    0.0243
 BZINTS: Fermi energy:  3.310119; 36.000000 electrons
         Band energy: -67.726774;  BLOECHL correction:  0.000000
       DOS:  cpu time    0.0010: real time    0.0012
    CHARGE:  cpu time    0.0960: real time    0.0947
    MIXING:  cpu time    0.0030: real time    0.0033
    --------------------------------------------
      LOOP:  cpu time    1.8097: real time    1.8119

 eigenvalue-minimisations  :  1136
 total energy-change (2. order) :-0.4929113E-05  (-0.3217025E-04)
 number of electron      36.0000005 magnetization 
 augmentation part       -1.1000399 magnetization 

 Broyden mixing:
  rms(total) = 0.17757E-02    rms(broyden)= 0.17757E-02
  rms(prec ) = 0.23760E-02
  weight for this iteration     100.00

 eigenvalues of (default mixing * dielectric matrix)
  average eigenvalue GAMMA=   1.7377
  3.1354  2.6698  2.6698  1.6017  1.1507  0.8869  0.8869  0.9001

 Free energy of the ion-electron system (eV)
  ---------------------------------------------------
  alpha Z        PSCENC =        90.42577596
  Ewald energy   TEWEN  =     -1146.88905665
  -Hartree energ DENC   =      -542.97373565
  -exchange      EXHF   =         0.00000000
  -V(xc)+E(xc)   XCENC  =       -70.38951764
  PAW double counting   =       943.78589420     -792.16864821
  entropy T*S    EENTRO =         0.00000000
  eigenvalues    EBANDS =       -67.72677356
  atomic energy  EATOM  =      1542.32615392
  Solvation  Ediel_sol  =         0.00000000
  ---------------------------------------------------
  free energy    TOTEN  =       -43.60990762 eV

  energy without entropy =      -43.60990762  energy(sigma->0) =      -43.60990762


--------------------------------------------------------------------------------------------------------




--------------------------------------- Iteration      1(  14)  ---------------------------------------


    POTLOK:  cpu time    0.0790: real time    0.0815
    SETDIJ:  cpu time    0.0070: real time    0.0074
    EDDIAG:  cpu time    0.2220: real time    0.2220
  RMM-DIIS:  cpu time    1.0658: real time    1.0657
    ORTHCH:  cpu time    0.0240: real time    0.0244
 BZINTS: Fermi energy:  3.308118; 36.000000 electrons
         Band energy: -67.745682;  BLOECHL correction:  0.000000
       DOS:  cpu time    0.0010: real time    0.0012
    CHARGE:  cpu time    0.0950: real time    0.0950
    MIXING:  cpu time    0.0040: real time    0.0031
    --------------------------------------------
      LOOP:  cpu time    1.4978: real time    1.5003

 eigenvalue-minimisations  :   860
 total energy-change (2. order) : 0.1231793E-04  (-0.6169705E-05)
 number of electron      36.0000005 magnetization 
 augmentation part       -1.0983917 magnetization 

 Broyden mixing:
  rms(total) = 0.24217E-03    rms(broyden)= 0.24217E-03
  rms(prec ) = 0.29535E-03
  weight for this iteration     100.00

 eigenvalues of (default mixing * dielectric matrix)
  average eigenvalue GAMMA=   1.6082
  3.0926  2.6982  2.2373  1.4222  1.3361  0.8860  0.8860  0.9576  0.9576

 Free energy of the ion-electron system (eV)
  ---------------------------------------------------
  alpha Z        PSCENC =        90.42577596
  Ewald energy   TEWEN  =     -1146.88905665
  -Hartree energ DENC   =      -542.95727792
  -exchange      EXHF   =         0.00000000
  -V(xc)+E(xc)   XCENC  =       -70.38680324
  PAW double counting   =       943.62924246     -792.01224736
  entropy T*S    EENTRO =         0.00000000
  eigenvalues    EBANDS =       -67.74568248
  atomic energy  EATOM  =      1542.32615392
  Solvation  Ediel_sol  =         0.00000000
  ---------------------------------------------------
  free energy    TOTEN  =       -43.60989530 eV

  energy without entropy =      -43.60989530  energy(sigma->0) =      -43.60989530


--------------------------------------------------------------------------------------------------------




--------------------------------------- Iteration      1(  15)  ---------------------------------------


    POTLOK:  cpu time    0.0780: real time    0.0806
    SETDIJ:  cpu time    0.0080: real time    0.0074
    EDDIAG:  cpu time    0.2230: real time    0.2236
  RMM-DIIS:  cpu time    0.8779: real time    0.8776
    ORTHCH:  cpu time    0.0240: real time    0.0244
 BZINTS: Fermi energy:  3.307830; 36.000000 electrons
         Band energy: -67.738176;  BLOECHL correction:  0.000000
       DOS:  cpu time    0.0010: real time    0.0012
    --------------------------------------------
      LOOP:  cpu time    1.2118: real time    1.2148

 eigenvalue-minimisations  :   676
 total energy-change (2. order) :-0.2363922E-06  (-0.7509040E-06)
 number of electron      36.0000005 magnetization 
 augmentation part       -1.0983917 magnetization 

 Free energy of the ion-electron system (eV)
  ---------------------------------------------------
  alpha Z        PSCENC =        90.42577596
  Ewald energy   TEWEN  =     -1146.88905665
  -Hartree energ DENC   =      -542.96551536
  -exchange      EXHF   =         0.00000000
  -V(xc)+E(xc)   XCENC  =       -70.38675849
  PAW double counting   =       943.60195721     -791.98427639
  entropy T*S    EENTRO =         0.00000000
  eigenvalues    EBANDS =       -67.73817575
  atomic energy  EATOM  =      1542.32615392
  Solvation  Ediel_sol  =         0.00000000
  ---------------------------------------------------
  free energy    TOTEN  =       -43.60989554 eV

  energy without entropy =      -43.60989554  energy(sigma->0) =      -43.60989554


--------------------------------------------------------------------------------------------------------




 average (electrostatic) potential at core
  the test charge radii are     1.2296  0.9698
  (the norm of the test charge is              1.0000)
       1 -40.3301       2 -40.3301       3 -88.1717       4 -88.1717       5 -88.1717
       6 -88.1717
 
 
 
 E-fermi :   3.3078     XC(G=0):  -9.3244     alpha+bet : -9.6368


 k-point     1 :       0.0000    0.0000    0.0000
  band No.  band energies     occupation 
      1     -10.9296      2.00000
      2     -10.9106      2.00000
      3      -9.7291      2.00000
      4      -9.6951      2.00000
      5      -2.5236      2.00000
      6      -2.3622      2.00000
      7       0.5196      2.00000
      8       0.5196      2.00000
      9       0.5201      2.00000
     10       0.5201      2.00000
     11       1.1059      2.00000
     12       1.6245      2.00000
     13       1.6245      2.00000
     14       1.6264      2.00000
     15       1.6264      2.00000
     16       1.6743      2.00000
     17       2.9224      2.00000
     18       3.2982      2.00000
     19       5.8776      0.00000
     20       5.8871      0.00000
     21       5.9637      0.00000
     22       6.0440      0.00000

 k-point     2 :       0.1250   -0.0000    0.0000
  band No.  band energies     occupation 
      1     -10.7152      2.00000
      2     -10.6966      2.00000
      3      -9.6255      2.00000
      4      -9.5940      2.00000
      5      -2.2778      2.00000
      6      -2.1189      2.00000
      7       0.0551      2.00000
      8       0.0578      2.00000
      9       0.4564      2.00000
     10       0.6725      2.00000
     11       0.7537      2.00000
     12       0.7549      2.00000
     13       1.2884      2.00000
     14       1.2910      2.00000
     15       1.9304      2.00000
     16       2.2143      2.00000
     17       2.8433      2.00000
     18       3.0853      2.00000
     19       5.5181      0.00000
     20       5.6609      0.00000
     21       5.7421      0.00000
     22       5.8612      0.00000

 k-point     3 :       0.2500   -0.0000    0.0000
  band No.  band energies     occupation 
      1     -10.1455      2.00000
      2     -10.1288      2.00000
      3      -9.3531      2.00000
      4      -9.3287      2.00000
      5      -1.8879      2.00000
      6      -1.7770      2.00000
      7      -0.6916      2.00000
      8      -0.6481      2.00000
      9      -0.4614      2.00000
     10      -0.3599      2.00000
     11       0.6530      2.00000
     12       0.6564      2.00000
     13       1.3396      2.00000
     14       1.3431      2.00000
     15       1.7039      2.00000
     16       1.9127      2.00000
     17       2.3697      2.00000
     18       2.4182      2.00000
     19       5.1187      0.00000
     20       5.4389      0.00000
     21       5.4434      0.00000
     22       5.4589      0.00000

 k-point     4 :       0.3750   -0.0000    0.0000
  band No.  band energies     occupation 
      1      -9.4680      2.00000
      2      -9.4561      2.00000
      3      -9.0396      2.00000
      4      -9.0253      2.00000
      5      -2.2854      2.00000
      6      -2.2507      2.00000
      7      -1.2977      2.00000
      8      -1.2547      2.00000
      9      -0.8466      2.00000
     10      -0.7616      2.00000
     11       0.1554      2.00000
     12       0.1593      2.00000
     13       1.3419      2.00000
     14       1.4494      2.00000
     15       1.9277      2.00000
     16       1.9363      2.00000
     17       2.1733      2.00000
     18       2.2241      2.00000
     19       5.2594      0.00000
     20       5.2685      0.00000
     21       5.4544      0.00000
     22       5.6330      0.00000

 k-point     5 :       0.5000   -0.0000    0.0000
  band No.  band energies     occupation 
      1      -9.1371      2.00000
      2      -9.1305      2.00000
      3      -8.8923      2.00000
      4      -8.8859      2.00000
      5      -2.6138      2.00000
      6      -2.5868      2.00000
      7      -1.6530      2.00000
      8      -1.6285      2.00000
      9      -0.9684      2.00000
     10      -0.8925      2.00000
     11      -0.0253      2.00000
     12      -0.0212      2.00000
     13       1.2464      2.00000
     14       1.2659      2.00000
     15       2.1530      2.00000
     16       2.1651      2.00000
     17       2.4770      2.00000
     18       2.4808      2.00000
     19       5.2843      0.00000
     20       5.2881      0.00000
     21       5.7739      0.00000
     22       5.8292      0.00000

 k-point     6 :       0.1250    0.1250    0.0000
  band No.  band energies     occupation 
      1     -10.3218      2.00000
      2     -10.3044      2.00000
      3      -9.4360      2.00000
      4      -9.4093      2.00000
      5      -1.9210      2.00000
      6      -1.7813      2.00000
      7      -0.5138      2.00000
      8      -0.5012      2.00000
      9      -0.0652      2.00000
     10       0.0768      2.00000
     11       0.4638      2.00000
     12       0.4899      2.00000
     13       1.0929      2.00000
     14       1.0947      2.00000
     15       2.0956      2.00000
     16       2.2980      2.00000
     17       2.5520      2.00000
     18       2.6276      2.00000
     19       5.0621      0.00000
     20       5.3281      0.00000
     21       5.5320      0.00000
     22       5.5791      0.00000

 k-point     7 :       0.2500    0.1250    0.0000
  band No.  band energies     occupation 
      1      -9.6866      2.00000
      2      -9.6725      2.00000
      3      -9.1332      2.00000
      4      -9.1150      2.00000
      5      -1.9397      2.00000
      6      -1.8866      2.00000
      7      -0.9512      2.00000
      8      -0.9200      2.00000
      9      -0.7085      2.00000
     10      -0.6351      2.00000
     11      -0.0668      2.00000
     12       0.0079      2.00000
     13       1.1902      2.00000
     14       1.1961      2.00000
     15       1.7871      2.00000
     16       1.8735      2.00000
     17       2.3022      2.00000
     18       2.3120      2.00000
     19       4.9960      0.00000
     20       5.2122      0.00000
     21       5.5529      0.00000
     22       5.6854      0.00000

 k-point     8 :       0.3750    0.1250    0.0000
  band No.  band energies     occupation 
      1      -9.1529      2.00000
      2      -9.1452      2.00000
      3      -8.8843      2.00000
      4      -8.8760      2.00000
      5      -2.3265      2.00000
      6      -2.2996      2.00000
      7      -1.7023      2.00000
      8      -1.6932      2.00000
      9      -0.8380      2.00000
     10      -0.7674      2.00000
     11      -0.0673      2.00000
     12      -0.0249      2.00000
     13       1.1999      2.00000
     14       1.2162      2.00000
     15       1.3282      2.00000
     16       1.3665      2.00000
     17       2.6246      2.00000
     18       2.6429      2.00000
     19       5.2706      0.00000
     20       5.3349      0.00000
     21       5.7785      0.00000
     22       5.8540      0.00000

 k-point     9 :       0.2500    0.2500    0.0000
  band No.  band energies     occupation 
      1      -9.1683      2.00000
      2      -9.1597      2.00000
      3      -8.8761      2.00000
      4      -8.8662      2.00000
      5      -1.9673      2.00000
      6      -1.9387      2.00000
      7      -1.7537      2.00000
      8      -1.7426      2.00000
      9      -0.4882      2.00000
     10      -0.4638      2.00000
     11      -0.1393      2.00000
     12      -0.0511      2.00000
     13       0.2146      2.00000
     14       0.2372      2.00000
     15       1.4762      2.00000
     16       1.4868      2.00000
     17       2.6006      2.00000
     18       2.6103      2.00000
     19       5.1855      0.00000
     20       5.3137      0.00000
     21       5.8981      0.00000
     22       6.0975      0.00000

 k-point    10 :       0.3750    0.2500    0.0000
  band No.  band energies     occupation 
      1      -8.9307      2.00000
      2      -8.9276      2.00000
      3      -8.7536      2.00000
      4      -8.7504      2.00000
      5      -2.1379      2.00000
      6      -2.1272      2.00000
      7      -1.7918      2.00000
      8      -1.7757      2.00000
      9      -0.7781      2.00000
     10      -0.7409      2.00000
     11      -0.1071      2.00000
     12      -0.0862      2.00000
     13       0.1069      2.00000
     14       0.1578      2.00000
     15       1.0756      2.00000
     16       1.1155      2.00000
     17       2.9621      2.00000
     18       2.9833      2.00000
     19       4.9237      0.00000
     20       4.9326      0.00000
     21       6.1509      0.00000
     22       6.3305      0.00000

 k-point    11 :       0.0000    0.0000    0.5000
  band No.  band energies     occupation 
      1     -10.9202      2.00000
      2     -10.9202      2.00000
      3      -9.7120      2.00000
      4      -9.7120      2.00000
      5      -2.4457      2.00000
      6      -2.4457      2.00000
      7       0.5198      2.00000
      8       0.5198      2.00000
      9       0.5198      2.00000
     10       0.5198      2.00000
     11       1.3627      2.00000
     12       1.3627      2.00000
     13       1.6254      2.00000
     14       1.6254      2.00000
     15       1.6255      2.00000
     16       1.6255      2.00000
     17       3.1409      2.00000
     18       3.1409      2.00000
     19       5.8773      0.00000
     20       5.9170      0.00000
     21       5.9774      0.00000
     22       6.0797      0.00000

 k-point    12 :       0.1250   -0.0000    0.5000
  band No.  band energies     occupation 
      1     -10.7060      2.00000
      2     -10.7060      2.00000
      3      -9.6096      2.00000
      4      -9.6096      2.00000
      5      -2.2014      2.00000
      6      -2.2014      2.00000
      7       0.0561      2.00000
      8       0.0561      2.00000
      9       0.5711      2.00000
     10       0.5711      2.00000
     11       0.7543      2.00000
     12       0.7543      2.00000
     13       1.2897      2.00000
     14       1.2897      2.00000
     15       2.0426      2.00000
     16       2.0426      2.00000
     17       2.9903      2.00000
     18       2.9903      2.00000
     19       5.5749      0.00000
     20       5.5767      0.00000
     21       5.7096      0.00000
     22       5.7697      0.00000

 k-point    13 :       0.2500   -0.0000    0.5000
  band No.  band energies     occupation 
      1     -10.1373      2.00000
      2     -10.1373      2.00000
      3      -9.3408      2.00000
      4      -9.3408      2.00000
      5      -1.8343      2.00000
      6      -1.8343      2.00000
      7      -0.6755      2.00000
      8      -0.6755      2.00000
      9      -0.4027      2.00000
     10      -0.4027      2.00000
     11       0.6547      2.00000
     12       0.6547      2.00000
     13       1.3414      2.00000
     14       1.3414      2.00000
     15       1.8004      2.00000
     16       1.8004      2.00000
     17       2.3994      2.00000
     18       2.3994      2.00000
     19       5.2601      0.00000
     20       5.2616      0.00000
     21       5.4455      0.00000
     22       5.4500      0.00000

 k-point    14 :       0.3750   -0.0000    0.5000
  band No.  band energies     occupation 
      1      -9.4622      2.00000
      2      -9.4622      2.00000
      3      -9.0323      2.00000
      4      -9.0323      2.00000
      5      -2.2682      2.00000
      6      -2.2682      2.00000
      7      -1.2781      2.00000
      8      -1.2781      2.00000
      9      -0.8021      2.00000
     10      -0.8021      2.00000
     11       0.1574      2.00000
     12       0.1574      2.00000
     13       1.3936      2.00000
     14       1.3936      2.00000
     15       1.9320      2.00000
     16       1.9320      2.00000
     17       2.2007      2.00000
     18       2.2007      2.00000
     19       5.2639      0.00000
     20       5.2639      0.00000
     21       5.5374      0.00000
     22       5.5375      0.00000

 k-point    15 :       0.5000   -0.0000    0.5000
  band No.  band energies     occupation 
      1      -9.1339      2.00000
      2      -9.1339      2.00000
      3      -8.8891      2.00000
      4      -8.8891      2.00000
      5      -2.6004      2.00000
      6      -2.6004      2.00000
      7      -1.6416      2.00000
      8      -1.6416      2.00000
      9      -0.9295      2.00000
     10      -0.9295      2.00000
     11      -0.0232      2.00000
     12      -0.0232      2.00000
     13       1.2560      2.00000
     14       1.2560      2.00000
     15       2.1591      2.00000
     16       2.1591      2.00000
     17       2.4790      2.00000
     18       2.4790      2.00000
     19       5.2862      0.00000
     20       5.2862      0.00000
     21       5.8018      0.00000
     22       5.8019      0.00000

 k-point    16 :       0.1250    0.1250    0.5000
  band No.  band energies     occupation 
      1     -10.3132      2.00000
      2     -10.3132      2.00000
      3      -9.4226      2.00000
      4      -9.4226      2.00000
      5      -1.8540      2.00000
      6      -1.8540      2.00000
      7      -0.5092      2.00000
      8      -0.5092      2.00000
      9       0.0126      2.00000
     10       0.0126      2.00000
     11       0.4758      2.00000
     12       0.4758      2.00000
     13       1.0938      2.00000
     14       1.0938      2.00000
     15       2.1815      2.00000
     16       2.1815      2.00000
     17       2.6015      2.00000
     18       2.6015      2.00000
     19       5.1827      0.00000
     20       5.1851      0.00000
     21       5.5521      0.00000
     22       5.5759      0.00000

 k-point    17 :       0.2500    0.1250    0.5000
  band No.  band energies     occupation 
      1      -9.6796      2.00000
      2      -9.6796      2.00000
      3      -9.1240      2.00000
      4      -9.1240      2.00000
      5      -1.9135      2.00000
      6      -1.9135      2.00000
      7      -0.9375      2.00000
      8      -0.9374      2.00000
      9      -0.6717      2.00000
     10      -0.6717      2.00000
     11      -0.0268      2.00000
     12      -0.0268      2.00000
     13       1.1930      2.00000
     14       1.1930      2.00000
     15       1.8282      2.00000
     16       1.8282      2.00000
     17       2.3078      2.00000
     18       2.3078      2.00000
     19       5.1026      0.00000
     20       5.1027      0.00000
     21       5.5545      0.00000
     22       5.5608      0.00000

 k-point    18 :       0.3750    0.1250    0.5000
  band No.  band energies     occupation 
      1      -9.1491      2.00000
      2      -9.1491      2.00000
      3      -8.8801      2.00000
      4      -8.8801      2.00000
      5      -2.3132      2.00000
      6      -2.3132      2.00000
      7      -1.6979      2.00000
      8      -1.6979      2.00000
      9      -0.8035      2.00000
     10      -0.8035      2.00000
     11      -0.0447      2.00000
     12      -0.0447      2.00000
     13       1.2073      2.00000
     14       1.2073      2.00000
     15       1.3473      2.00000
     16       1.3474      2.00000
     17       2.6340      2.00000
     18       2.6340      2.00000
     19       5.3031      0.00000
     20       5.3031      0.00000
     21       5.8120      0.00000
     22       5.8182      0.00000

 k-point    19 :       0.2500    0.2500    0.5000
  band No.  band energies     occupation 
      1      -9.1641      2.00000
      2      -9.1641      2.00000
      3      -8.8711      2.00000
      4      -8.8711      2.00000
      5      -1.9532      2.00000
      6      -1.9532      2.00000
      7      -1.7480      2.00000
      8      -1.7480      2.00000
      9      -0.4798      2.00000
     10      -0.4797      2.00000
     11      -0.0910      2.00000
     12      -0.0910      2.00000
     13       0.2261      2.00000
     14       0.2261      2.00000
     15       1.4805      2.00000
     16       1.4805      2.00000
     17       2.6055      2.00000
     18       2.6055      2.00000
     19       5.2494      0.00000
     20       5.2498      0.00000
     21       5.8650      0.00000
     22       6.1659      0.00000

 k-point    20 :       0.3750    0.2500    0.5000
  band No.  band energies     occupation 
      1      -8.9291      2.00000
      2      -8.9291      2.00000
      3      -8.7520      2.00000
      4      -8.7520      2.00000
      5      -2.1326      2.00000
      6      -2.1326      2.00000
      7      -1.7835      2.00000
      8      -1.7835      2.00000
      9      -0.7605      2.00000
     10      -0.7605      2.00000
     11      -0.0993      2.00000
     12      -0.0993      2.00000
     13       0.1372      2.00000
     14       0.1372      2.00000
     15       1.0940      2.00000
     16       1.0940      2.00000
     17       2.9727      2.00000
     18       2.9727      2.00000
     19       4.9283      0.00000
     20       4.9283      0.00000
     21       6.2282      0.00000
     22       6.2342      0.00000


--------------------------------------------------------------------------------------------------------


 soft charge-density along one line, spin component           1
         0         1         2         3         4         5         6         7         8         9
 total charge-density along one line
 
 pseudopotential strength for first ion, spin component:           1
 -8.238  -0.000   0.000   0.000  -0.000  -0.074   0.000  -0.000
 -0.000  -8.238   0.000  -0.000  -0.000   0.000  -0.074  -0.000
  0.000   0.000  -8.217  -0.000  -0.000  -0.000  -0.000  -0.075
  0.000  -0.000  -0.000  -8.238  -0.000  -0.000   0.000   0.000
 -0.000  -0.000  -0.000  -0.000  -8.238   0.000   0.000   0.000
 -0.074   0.000  -0.000  -0.000   0.000   0.112  -0.000   0.000
  0.000  -0.074  -0.000   0.000   0.000  -0.000   0.112   0.000
 -0.000  -0.000  -0.075   0.000   0.000   0.000   0.000   0.112
 -0.000   0.000   0.000  -0.074   0.000   0.000  -0.000  -0.000
  0.000   0.000   0.000   0.000  -0.074  -0.000  -0.000  -0.000
  0.000  -0.000  -0.005   0.000  -0.000  -0.000   0.000   0.000
 -0.000   0.000   0.001  -0.000   0.000   0.000  -0.000  -0.000
 -0.000   0.000  -0.000  -0.000  -0.007   0.000  -0.000   0.000
 -0.000   0.000   0.000  -0.000  -0.000  -0.000  -0.000  -0.000
 -0.007  -0.000   0.000   0.000  -0.000  -0.000  -0.000  -0.000
  0.000  -0.000   0.000   0.000   0.004  -0.000   0.000  -0.000
  0.000  -0.000  -0.000   0.000   0.000  -0.000   0.000   0.000
  0.004   0.000  -0.000  -0.000   0.000   0.000  -0.000   0.000
 total augmentation occupancy for first ion, spin component:           1
  0.965   0.000  -0.000  -0.000  -0.000   0.595   0.000  -0.000   0.000  -0.000  -0.000  -0.000   0.000   0.000  -0.065  -0.000
 -0.000   0.906  -0.000   0.000   0.000   0.000   0.833   0.000   0.000   0.000   0.000   0.000  -0.000   0.000   0.000   0.000
 -0.000   0.000   1.029  -0.000   0.000  -0.000   0.000   0.495  -0.000   0.000   0.111  -0.019  -0.000  -0.000   0.000   0.000
  0.000   0.000   0.000   0.906  -0.000   0.000   0.000   0.000   0.833   0.000  -0.000   0.000   0.000  -0.000   0.000   0.000
 -0.000   0.000   0.000  -0.000   0.965   0.000   0.000   0.000  -0.000   0.595   0.000  -0.000  -0.065   0.000  -0.000   0.007
  0.595  -0.000  -0.000   0.000  -0.000   0.670   0.000  -0.000   0.000  -0.000   0.000  -0.000   0.000  -0.000  -0.136  -0.000
  0.000   0.833  -0.000   0.000  -0.000   0.000   1.069   0.000   0.000   0.000   0.000   0.000  -0.000  -0.000  -0.000  -0.000
 -0.000   0.000   0.495   0.000   0.000  -0.000  -0.000   0.470  -0.000   0.000   0.058  -0.021  -0.000   0.000   0.000   0.000
 -0.000   0.000  -0.000   0.833  -0.000  -0.000   0.000  -0.000   1.069   0.000   0.000  -0.000   0.000  -0.000  -0.000   0.000
 -0.000   0.000   0.000  -0.000   0.595  -0.000   0.000   0.000  -0.000   0.670   0.000  -0.000  -0.136   0.000  -0.000   0.023
 -0.000  -0.000   0.111   0.000   0.000   0.000   0.000   0.058   0.000   0.000   1.207  -0.185   0.000   0.000   0.000   0.000
 -0.000   0.000  -0.019   0.000  -0.000  -0.000   0.000  -0.021   0.000  -0.000  -0.185   0.042   0.000  -0.000   0.000  -0.000
  0.000  -0.000  -0.000  -0.000  -0.065   0.000   0.000  -0.000   0.000  -0.136   0.000   0.000   0.217   0.000   0.000  -0.032
  0.000   0.000  -0.000  -0.000   0.000  -0.000   0.000   0.000  -0.000   0.000   0.000  -0.000   0.000   0.264  -0.000   0.000
 -0.065   0.000   0.000   0.000  -0.000  -0.136   0.000   0.000   0.000  -0.000   0.000   0.000   0.000   0.000   0.217  -0.000
 -0.000  -0.000   0.000   0.000   0.007  -0.000   0.000   0.000   0.000   0.023   0.000  -0.000  -0.032  -0.000  -0.000   0.005
 -0.000  -0.000  -0.000   0.000  -0.000   0.000   0.000  -0.000  -0.000   0.000  -0.000   0.000   0.000  -0.038   0.000  -0.000
  0.007  -0.000  -0.000  -0.000   0.000   0.023   0.000  -0.000   0.000   0.000   0.000   0.000  -0.000  -0.000  -0.032   0.000


------------------------ aborting loop because EDIFF is reached ----------------------------------------


    CHARGE:  cpu time    0.0940: real time    0.0948
    FORLOC:  cpu time    0.0080: real time    0.0073
    FORNL :  cpu time    0.2860: real time    0.2865
    STRESS:  cpu time    0.9309: real time    0.9313
    FORCOR:  cpu time    0.0810: real time    0.0806
    FORHAR:  cpu time    0.0180: real time    0.0181
    MIXING:  cpu time    0.0030: real time    0.0033
    OFIELD:  cpu time    0.0000: real time    0.0000

  DFT-D2 method for vdW energy calculation
  -------------------------------------------------------------------

  Parameters of vdW forcefield:
         C6(Jnm^6/mol)     R0(A)
   -----------------------------
   Mo      24.670          1.639
   S        5.570          1.683

  IVDW =   1
  VDW_RADIUS =    50.000 A
  VDW_S6 =     0.750
  VDW_SR =     1.000
  VDW_D =    20.000
  LVDW_EWALD = F

  Number of pair interactions contributing to vdW energy:   84128
  Edisp (eV):   -1.33129
    FORVDW:  cpu time    0.0220: real time    0.0283

  FORCE on cell =-STRESS in cart. coord.  units (eV):
  Direction    XX          YY          ZZ          XY          YZ          ZX
  --------------------------------------------------------------------------------------
  Alpha Z    90.42578    90.42578    90.42578
  Ewald     -12.90873   -12.90785 -1121.07429     0.00038     0.00000     0.00025
  Hartree   466.59288   466.59289  -390.20434     0.00003     0.00000    -0.00001
  E(xc)    -140.61597  -140.61598  -141.80775    -0.00001     0.00000    -0.00000
  Local   -1080.43603 -1080.43658   872.65237    -0.00032    -0.00000    -0.00011
  n-local   254.33572   251.58340   263.36409    -0.51723     0.00014     0.00017
  augment   -51.12807   -51.12805   -53.33100     0.00003     0.00000    -0.00001
  Kinetic   471.76659   477.35660   479.52353   -14.79906     0.00009    -0.00030
  Fock        0.00000     0.00000     0.00000     0.00000     0.00000     0.00000
  vdW         0.17103     0.17103    -0.86546     0.00000     0.00000    -0.00000
  -------------------------------------------------------------------------------------
  Total      -0.37778    -0.37778    -1.31707     0.00000     0.00000     0.00000
  in kB      -4.61506    -4.61506   -16.08973     0.00000     0.00000     0.00000
  external pressure =       -8.44 kB  Pullay stress =        0.00 kB


 VOLUME and BASIS-vectors are now :
 -----------------------------------------------------------------------------
  energy-cutoff  :      850.00
  volume of cell :      131.15
      direct lattice vectors                 reciprocal lattice vectors
     3.190315730  0.000000000  0.000000000     0.313448600  0.180969634  0.000000000
    -1.595157865  2.762894468  0.000000000     0.000000000  0.361939267  0.000000000
     0.000000000  0.000000000 14.879004300     0.000000000  0.000000000  0.067208798

  length of vectors
     3.190315730  3.190315730 14.879004300     0.361939267  0.361939267  0.067208798


 FORCES acting on ions
    electron-ion (+dipol)            ewald-force                    non-local-force                 convergence-correction
 -----------------------------------------------------------------------------------------------
   0.471E-04 -.344E-04 -.957E-05   0.928E-04 -.107E-03 0.288E-09   -.243E-16 -.694E-17 0.339E-20   0.416E-08 -.540E-08 -.247E-09
   0.662E-04 -.310E-04 -.957E-05   -.928E-04 0.107E-03 -.288E-09   0.243E-16 0.139E-16 0.508E-20   0.386E-08 0.772E-09 -.246E-09
   0.526E-03 -.304E-03 -.242E+03   0.865E-04 -.537E-04 0.247E+03   0.173E-16 0.520E-17 -.479E+01   0.108E-07 -.664E-08 0.552E-02
   -.118E-02 0.680E-03 0.242E+03   -.865E-04 0.537E-04 -.247E+03   -.607E-17 -.520E-17 0.479E+01   -.257E-07 0.152E-07 -.552E-02
   0.524E-03 0.690E-03 -.242E+03   -.638E-05 0.537E-04 0.247E+03   -.108E-16 -.347E-17 -.479E+01   0.996E-08 0.139E-07 0.552E-02
   -.121E-02 -.293E-03 0.242E+03   0.638E-05 -.537E-04 -.247E+03   0.130E-16 0.173E-16 0.479E+01   -.205E-07 -.789E-08 -.552E-02
 -----------------------------------------------------------------------------------------------
   -.122E-02 0.707E-03 -.106E-04   -.561E-14 0.109E-13 0.284E-13   0.134E-16 0.208E-16 0.888E-15   -.173E-07 0.999E-08 -.533E-09
 
 
 POSITION                                       TOTAL-FORCE (eV/Angst)
 -----------------------------------------------------------------------------------
     -0.00000      1.84193      3.71975        -0.000000     -0.000000     -0.000000
      1.59516      0.92096     11.15925        -0.000000     -0.000000     -0.000000
     -0.00000      1.84193     12.72414         0.000000     -0.000000     -0.085613
      1.59516      0.92096      2.15487        -0.000000      0.000000      0.085613
      1.59516      0.92096      5.28464        -0.000000      0.000000     -0.085613
      0.00000      1.84193      9.59437         0.000000     -0.000000      0.085613
 -----------------------------------------------------------------------------------
    total drift:                               -0.001225      0.000707     -0.000011


--------------------------------------------------------------------------------------------------------



  FREE ENERGIE OF THE ION-ELECTRON SYSTEM (eV)
  ---------------------------------------------------
  free  energy   TOTEN  =       -44.94118255 eV

  energy  without entropy=      -44.94118255  energy(sigma->0) =      -44.94118255
 


--------------------------------------------------------------------------------------------------------


    POTLOK:  cpu time    0.0800: real time    0.0797


--------------------------------------------------------------------------------------------------------


     LOOP+:  cpu time   27.1209: real time   27.2971
    4ORBIT:  cpu time    0.0000: real time    0.0000
 BZINTS: Fermi energy:  3.307830; 36.000000 electrons
         Band energy: -67.738176;  BLOECHL correction:  0.000000

 total amount of memory used by VASP MPI-rank0    78369. kBytes
=======================================================================

   base      :      30000. kBytes
   nonl-proj :      21725. kBytes
   fftplans  :       5158. kBytes
   grid      :       8262. kBytes
   one-center:         46. kBytes
   wavefun   :      13178. kBytes
 
  
  
 General timing and accounting informations for this job:
 ========================================================
  
                  Total CPU time used (sec):       28.661
                            User time (sec):       27.992
                          System time (sec):        0.669
                         Elapsed time (sec):       29.487
  
                   Maximum memory used (kb):       73576.
                   Average memory used (kb):           0.
  
                          Minor page faults:        19073
                          Major page faults:          176
                 Voluntary context switches:         2471
