perl: warning: Setting locale failed.
perl: warning: Please check that your locale settings:
	LANGUAGE = (unset),
	LC_ALL = (unset),
	LC_CTYPE = "UTF-8",
	LANG = "en_US.iso885915"
    are supported and installed on your system.
perl: warning: Falling back to the standard locale ("C").
Starting job 28532539 ("jobname") on c15-17 at Fri Nov 8 11:38:50 CET 2019
 running on    4 total cores
 distrk:  each k-point on    4 cores,    1 groups
 distr:  one band on    2 cores,    2 groups
 using from now: INCAR     
 vasp.5.4.4.18Apr17-6-g9f103f2a35 (build Jun 30 2017 11:15:00) complex          
  
 POSCAR found type information on POSCAR  Mo S 
 POSCAR found :  2 types and       6 ions
 scaLAPACK will be used
 WARNING: PSMAXN for non-local potential too small
 LDA part: xc-table for Pade appr. of Perdew
 POSCAR, INCAR and KPOINTS ok, starting setup
 FFT: planning ...
 WAVECAR not read
 WARNING: random wavefunctions but no delay for mixing, default for NELMDL
 entering main loop
       N       E                     dE             d eps       ncg     rms          rms(c)
DAV:   1     0.277836778124E+03    0.27784E+03   -0.20623E+04   880   0.208E+03
DAV:   2    -0.189862068921E+02   -0.29682E+03   -0.28921E+03  1184   0.331E+02
DAV:   3    -0.459908444031E+02   -0.27005E+02   -0.26865E+02  1242   0.913E+01
DAV:   4    -0.467984300162E+02   -0.80759E+00   -0.80604E+00  1182   0.168E+01
DAV:   5    -0.468242700322E+02   -0.25840E-01   -0.25834E-01  1216   0.286E+00    0.974E+00
RMM:   6    -0.444403022310E+02    0.23840E+01   -0.24393E+01   983   0.197E+01    0.338E+00
RMM:   7    -0.436990174851E+02    0.74128E+00   -0.19804E+00   959   0.569E+00    0.179E+00
RMM:   8    -0.436364613382E+02    0.62556E-01   -0.90209E-01  1004   0.337E+00    0.841E-01
RMM:   9    -0.436252971804E+02    0.11164E-01   -0.29257E-01  1041   0.228E+00    0.565E-01
RMM:  10    -0.436098009740E+02    0.15496E-01   -0.66085E-02  1045   0.112E+00    0.852E-02
RMM:  11    -0.436097547730E+02    0.46201E-04   -0.28029E-03  1098   0.232E-01    0.294E-02
RMM:  12    -0.436099026882E+02   -0.14792E-03   -0.53893E-04  1111   0.120E-01    0.214E-02
RMM:  13    -0.436099076173E+02   -0.49291E-05   -0.32170E-04  1136   0.749E-02    0.178E-02
RMM:  14    -0.436098952993E+02    0.12318E-04   -0.61697E-05   860   0.373E-02    0.242E-03
RMM:  15    -0.436098955357E+02   -0.23639E-06   -0.75090E-06   676   0.134E-02
   1 F= -.44941183E+02 E0= -.44941183E+02  d E =0.000000E+00

Currently Loaded Modulefiles:
  1) Anaconda3/5.1.0       3) vesta/3.3.8           5) intel/2016.1
  2) gnuplot/5.0.4         4) imagemagick/6.7.9-0   6) vasp/5.4.1.Feb16

Job script resource usage:
       JobID  MaxVMSize     MaxRSS 
------------ ---------- ---------- 
28532539.ba+    499280K      5385K 

Job step resource usage:
       JobID    JobName  AllocCPUS  MaxVMSize     MaxRSS    Elapsed ExitCode 
------------ ---------- ---------- ---------- ---------- ---------- -------- 
28532539        jobname          4                         00:00:31      0:0 
28532539.0    pmi_proxy          1   1436868K    248581K   00:00:30      0:0 

Job 28532539 ("jobname") completed on c15-17 at Fri Nov 8 11:39:20 CET 2019
