<?xml version="1.0" encoding="ISO-8859-1"?>
<modeling>
 <generator>
  <i name="program" type="string">vasp </i>
  <i name="version" type="string">5.4.4.18Apr17-6-g9f103f2a35  </i>
  <i name="subversion" type="string">(build Jun 30 2017 11:15:00) complex            parallel </i>
  <i name="platform" type="string">STALLO_VASP_5.4.4 </i>
  <i name="date" type="string">2019 11 08 </i>
  <i name="time" type="string">11:38:51 </i>
 </generator>
 <incar>
  <i type="string" name="PREC">normal    ! low/normal/accurate</i>
  <i type="string" name="ALGO"> Fast      ! Algorithm for electronic re</i>
  <i type="int" name="ISPIN">     1</i>
  <i type="int" name="NELMIN">     4</i>
  <i name="EDIFF">      0.00001000</i>
  <i type="int" name="NSW">     0</i>
  <i name="ENCUT">    850.00000000</i>
  <i type="logical" name="LREAL"> F  </i>
  <i type="int" name="ISMEAR">    -5</i>
  <i name="SIGMA">      0.20000000</i>
  <i type="logical" name="LWAVE"> F  </i>
  <v type="int" name="KPOINT_BSE">    -1     0     0     0</v>
 </incar>
 <structure name="primitive_cell" >
  <crystal>
   <varray name="basis" >
    <v>       3.19031573       0.00000000       0.00000000 </v>
    <v>      -1.59515786       2.76289447       0.00000000 </v>
    <v>       0.00000000       0.00000000      14.87900430 </v>
   </varray>
   <i name="volume">    131.15106795 </i>
   <varray name="rec_basis" >
    <v>       0.31344860       0.18096963       0.00000000 </v>
    <v>       0.00000000       0.36193927       0.00000000 </v>
    <v>       0.00000000       0.00000000       0.06720880 </v>
   </varray>
  </crystal>
  <varray name="positions" >
   <v>       0.33333300      -0.33333300       0.25000000 </v>
   <v>      -0.33333400       0.33333300       0.35517400 </v>
   <v>      -0.33333300       0.33333300       0.14482600 </v>
   <v>       0.33333300      -0.33333300      -0.14482600 </v>
   <v>       0.33333400      -0.33333300      -0.35517400 </v>
   <v>      -0.33333300       0.33333300      -0.25000000 </v>
  </varray>
 </structure>
 <varray name="primitive_index" >
  <v type="int" >        1 </v>
  <v type="int" >        5 </v>
  <v type="int" >        4 </v>
  <v type="int" >        3 </v>
  <v type="int" >        6 </v>
  <v type="int" >        2 </v>
 </varray>
 <kpoints>
  <generation param="Gamma">
   <v type="int" name="divisions">       8        8        2 </v>
   <v name="usershift">      0.00000000       0.00000000       0.00000000 </v>
   <v name="genvec1">      0.12500000       0.00000000       0.00000000 </v>
   <v name="genvec2">      0.00000000       0.12500000       0.00000000 </v>
   <v name="genvec3">      0.00000000       0.00000000       0.50000000 </v>
   <v name="shift">      0.00000000       0.00000000       0.00000000 </v>
  </generation>
  <varray name="kpointlist" >
   <v>       0.00000000       0.00000000       0.00000000 </v>
   <v>       0.12500000      -0.00000000       0.00000000 </v>
   <v>       0.25000000      -0.00000000       0.00000000 </v>
   <v>       0.37500000      -0.00000000       0.00000000 </v>
   <v>       0.50000000      -0.00000000       0.00000000 </v>
   <v>       0.12500000       0.12500000       0.00000000 </v>
   <v>       0.25000000       0.12500000       0.00000000 </v>
   <v>       0.37500000       0.12500000       0.00000000 </v>
   <v>       0.25000000       0.25000000       0.00000000 </v>
   <v>       0.37500000       0.25000000       0.00000000 </v>
   <v>       0.00000000       0.00000000       0.50000000 </v>
   <v>       0.12500000      -0.00000000       0.50000000 </v>
   <v>       0.25000000      -0.00000000       0.50000000 </v>
   <v>       0.37500000      -0.00000000       0.50000000 </v>
   <v>       0.50000000      -0.00000000       0.50000000 </v>
   <v>       0.12500000       0.12500000       0.50000000 </v>
   <v>       0.25000000       0.12500000       0.50000000 </v>
   <v>       0.37500000       0.12500000       0.50000000 </v>
   <v>       0.25000000       0.25000000       0.50000000 </v>
   <v>       0.37500000       0.25000000       0.50000000 </v>
  </varray>
  <varray name="weights" >
   <v>       0.00781250 </v>
   <v>       0.04687500 </v>
   <v>       0.04687500 </v>
   <v>       0.04687500 </v>
   <v>       0.02343750 </v>
   <v>       0.04687500 </v>
   <v>       0.09375000 </v>
   <v>       0.09375000 </v>
   <v>       0.04687500 </v>
   <v>       0.04687500 </v>
   <v>       0.00781250 </v>
   <v>       0.04687500 </v>
   <v>       0.04687500 </v>
   <v>       0.04687500 </v>
   <v>       0.02343750 </v>
   <v>       0.04687500 </v>
   <v>       0.09375000 </v>
   <v>       0.09375000 </v>
   <v>       0.04687500 </v>
   <v>       0.04687500 </v>
  </varray>
  <varray name="tetrahedronlist"  type="int" >
   <v type="int" >        8        2        2        6       12 </v>
   <v type="int" >        8        1        2        2       12 </v>
   <v type="int" >        4        1        2       11       12 </v>
   <v type="int" >        4        2        6       12       16 </v>
   <v type="int" >        8        2       12       12       16 </v>
   <v type="int" >        8        2       11       12       12 </v>
   <v type="int" >        8        3        6        7       16 </v>
   <v type="int" >        8        2        3        6       16 </v>
   <v type="int" >        4        2        3       12       16 </v>
   <v type="int" >        4        3        7       16       17 </v>
   <v type="int" >        8        3       13       16       17 </v>
   <v type="int" >        8        3       12       13       16 </v>
   <v type="int" >        8        4        7        8       17 </v>
   <v type="int" >        8        3        4        7       17 </v>
   <v type="int" >        4        3        4       13       17 </v>
   <v type="int" >        4        4        8       17       18 </v>
   <v type="int" >        8        4       14       17       18 </v>
   <v type="int" >        8        4       13       14       17 </v>
   <v type="int" >        8        5        8        8       18 </v>
   <v type="int" >        8        4        5        8       18 </v>
   <v type="int" >        4        4        5       14       18 </v>
   <v type="int" >        4        5        8       18       18 </v>
   <v type="int" >        4        5       15       18       18 </v>
   <v type="int" >        8        5       14       15       18 </v>
   <v type="int" >        8        4        7        8       18 </v>
   <v type="int" >        4        4        5       15       18 </v>
   <v type="int" >        4        4        7       17       18 </v>
   <v type="int" >        8        4       14       15       18 </v>
   <v type="int" >        8        3        6        7       17 </v>
   <v type="int" >        4        3        4       14       17 </v>
   <v type="int" >        4        3        6       16       17 </v>
   <v type="int" >        8        3       13       14       17 </v>
   <v type="int" >        4        2        2        6       16 </v>
   <v type="int" >        4        2        3       13       16 </v>
   <v type="int" >        4        2        2       12       16 </v>
   <v type="int" >        8        2       12       13       16 </v>
   <v type="int" >        4        1        2       12       12 </v>
   <v type="int" >        4        1       11       12       12 </v>
   <v type="int" >        8        3        6        7       13 </v>
   <v type="int" >        8        2        3        6       13 </v>
   <v type="int" >        4        2        6       12       13 </v>
   <v type="int" >        4        6        7       13       17 </v>
   <v type="int" >        8        6       13       16       17 </v>
   <v type="int" >        8        6       12       13       16 </v>
   <v type="int" >        8        7        7        9       17 </v>
   <v type="int" >        8        6        7        7       17 </v>
   <v type="int" >        4        6        7       16       17 </v>
   <v type="int" >        4        7        9       17       19 </v>
   <v type="int" >        8        7       17       17       19 </v>
   <v type="int" >        8        7       16       17       17 </v>
   <v type="int" >        8        8        9       10       19 </v>
   <v type="int" >        8        7        8        9       19 </v>
   <v type="int" >        4        7        8       17       19 </v>
   <v type="int" >        4        8       10       19       20 </v>
   <v type="int" >        8        8       18       19       20 </v>
   <v type="int" >        8        8       17       18       19 </v>
   <v type="int" >        8        8        9       10       20 </v>
   <v type="int" >        4        8        8       10       20 </v>
   <v type="int" >        4        8        8       18       20 </v>
   <v type="int" >        4        8        9       19       20 </v>
   <v type="int" >        8        8       18       18       20 </v>
   <v type="int" >        4        7        7        9       19 </v>
   <v type="int" >        4        7        8       18       19 </v>
   <v type="int" >        4        7        7       17       19 </v>
   <v type="int" >        8        7       17       18       19 </v>
   <v type="int" >        4        6        7       17       17 </v>
   <v type="int" >        4        3        6       13       17 </v>
   <v type="int" >        4        6       16       17       17 </v>
   <v type="int" >        4        2        6       13       16 </v>
   <v type="int" >        8        4        7        8       14 </v>
   <v type="int" >        8        3        4        7       14 </v>
   <v type="int" >        4        3        7       13       14 </v>
   <v type="int" >        4        7        8       14       18 </v>
   <v type="int" >        8        7       14       17       18 </v>
   <v type="int" >        8        7       13       14       17 </v>
   <v type="int" >        8        8        9       10       18 </v>
   <v type="int" >        8        7        8        9       18 </v>
   <v type="int" >        4        7        9       17       18 </v>
   <v type="int" >        4        9       10       18       20 </v>
   <v type="int" >        8        9       18       19       20 </v>
   <v type="int" >        8        9       17       18       19 </v>
   <v type="int" >        4       10       10       10       20 </v>
   <v type="int" >        8        9       10       10       20 </v>
   <v type="int" >        4        9       10       19       20 </v>
   <v type="int" >        4       10       10       20       20 </v>
   <v type="int" >        4       10       20       20       20 </v>
   <v type="int" >        8       10       19       20       20 </v>
   <v type="int" >        4        9       10       20       20 </v>
   <v type="int" >        4        8        9       18       20 </v>
   <v type="int" >        4        9       19       20       20 </v>
   <v type="int" >        4        7        9       18       19 </v>
   <v type="int" >        4        4        7       14       18 </v>
   <v type="int" >        4        3        7       14       17 </v>
   <v type="int" >        4        5        8        8       15 </v>
   <v type="int" >        8        4        5        8       15 </v>
   <v type="int" >        4        4        8       14       15 </v>
   <v type="int" >        4        8        8       15       18 </v>
   <v type="int" >        8        8       15       18       18 </v>
   <v type="int" >        8        8       14       15       18 </v>
   <v type="int" >        8        8        8       10       18 </v>
   <v type="int" >        4        8       10       18       18 </v>
   <v type="int" >        4        9       10       18       19 </v>
   <v type="int" >        8       10       18       19       20 </v>
   <v type="int" >        4       10       18       18       20 </v>
   <v type="int" >        4        9       10       10       19 </v>
   <v type="int" >        4       10       10       19       20 </v>
   <v type="int" >        4        8       10       18       19 </v>
   <v type="int" >        4        8       10       18       20 </v>
   <v type="int" >        4        5        8       15       18 </v>
   <v type="int" >        4        4        8       15       18 </v>
   <v type="int" >        8        4        5        8       14 </v>
   <v type="int" >        4        5        8       14       15 </v>
   <v type="int" >        4        7        8       14       17 </v>
   <v type="int" >        8        8       14       17       18 </v>
   <v type="int" >        8        7        8        9       17 </v>
   <v type="int" >        4        8        9       17       18 </v>
   <v type="int" >        4        7        9       17       17 </v>
   <v type="int" >        4        9       17       17       19 </v>
   <v type="int" >        4        8        9       17       19 </v>
   <v type="int" >        4        4        8       14       17 </v>
   <v type="int" >        4        5        8       14       18 </v>
   <v type="int" >        8        3        4        7       13 </v>
   <v type="int" >        4        4        7       13       14 </v>
   <v type="int" >        4        6        7       13       16 </v>
   <v type="int" >        8        7       13       16       17 </v>
   <v type="int" >        4        6        7        7       16 </v>
   <v type="int" >        4        7        7       16       17 </v>
   <v type="int" >        4        3        7       13       16 </v>
   <v type="int" >        4        4        7       13       17 </v>
   <v type="int" >        8        2        3        6       12 </v>
   <v type="int" >        4        3        6       12       13 </v>
   <v type="int" >        4        2        6       12       12 </v>
   <v type="int" >        4        6       12       12       16 </v>
   <v type="int" >        4        3        6       12       16 </v>
   <v type="int" >        4        1        2        2       11 </v>
   <v type="int" >        4        2        2       11       12 </v>
  </varray>
  <i name="volumeweight">      0.00130208 </i>
 </kpoints>
 <parameters>
  <separator name="general" >
   <i type="string" name="SYSTEM">unknown system</i>
   <i type="logical" name="LCOMPAT"> F  </i>
  </separator>
  <separator name="electronic" >
   <i type="string" name="PREC">normal</i>
   <i name="ENMAX">    850.00000000</i>
   <i name="ENAUG">    345.27800000</i>
   <i name="EDIFF">      0.00001000</i>
   <i type="int" name="IALGO">    68</i>
   <i type="int" name="IWAVPR">    10</i>
   <i type="int" name="NBANDS">    22</i>
   <i name="NELECT">     36.00000000</i>
   <i type="int" name="TURBO">     0</i>
   <i type="int" name="IRESTART">     0</i>
   <i type="int" name="NREBOOT">     0</i>
   <i type="int" name="NMIN">     0</i>
   <i name="EREF">      0.00000000</i>
   <separator name="electronic smearing" >
    <i type="int" name="ISMEAR">    -5</i>
    <i name="SIGMA">      0.20000000</i>
    <i name="KSPACING">      0.50000000</i>
    <i type="logical" name="KGAMMA"> T  </i>
   </separator>
   <separator name="electronic projectors" >
    <i type="logical" name="LREAL"> F  </i>
    <v name="ROPT">      0.00000000      0.00000000</v>
    <i type="int" name="LMAXPAW">  -100</i>
    <i type="int" name="LMAXMIX">     2</i>
    <i type="logical" name="NLSPLINE"> F  </i>
   </separator>
   <separator name="electronic startup" >
    <i type="int" name="ISTART">     0</i>
    <i type="int" name="ICHARG">     2</i>
    <i type="int" name="INIWAV">     1</i>
   </separator>
   <separator name="electronic spin" >
    <i type="int" name="ISPIN">     1</i>
    <i type="logical" name="LNONCOLLINEAR"> F  </i>
    <v name="MAGMOM">      1.00000000      1.00000000      1.00000000      1.00000000      1.00000000      1.00000000</v>
    <i name="NUPDOWN">     -1.00000000</i>
    <i type="logical" name="LSORBIT"> F  </i>
    <v name="SAXIS">      0.00000000      0.00000000      1.00000000</v>
    <i type="logical" name="LSPIRAL"> F  </i>
    <v name="QSPIRAL">      0.00000000      0.00000000      0.00000000</v>
    <i type="logical" name="LZEROZ"> F  </i>
   </separator>
   <separator name="electronic exchange-correlation" >
    <i type="logical" name="LASPH"> F  </i>
    <i type="logical" name="LMETAGGA"> F  </i>
   </separator>
   <separator name="electronic convergence" >
    <i type="int" name="NELM">    60</i>
    <i type="int" name="NELMDL">     0</i>
    <i type="int" name="NELMIN">     4</i>
    <i name="ENINI">    850.00000000</i>
    <separator name="electronic convergence detail" >
     <i type="logical" name="LDIAG"> T  </i>
     <i type="logical" name="LSUBROT"> F  </i>
     <i name="WEIMIN">      0.00000000</i>
     <i name="EBREAK">      0.00000011</i>
     <i name="DEPER">      0.30000000</i>
     <i type="int" name="NRMM">     4</i>
     <i name="TIME">      0.40000000</i>
    </separator>
   </separator>
   <separator name="electronic mixer" >
    <i name="AMIX">      0.40000000</i>
    <i name="BMIX">      1.00000000</i>
    <i name="AMIN">      0.10000000</i>
    <i name="AMIX_MAG">      1.60000000</i>
    <i name="BMIX_MAG">      1.00000000</i>
    <separator name="electronic mixer details" >
     <i type="int" name="IMIX">     4</i>
     <i type="logical" name="MIXFIRST"> F  </i>
     <i type="int" name="MAXMIX">   -45</i>
     <i name="WC">    100.00000000</i>
     <i type="int" name="INIMIX">     1</i>
     <i type="int" name="MIXPRE">     1</i>
     <i type="int" name="MREMOVE">     5</i>
    </separator>
   </separator>
   <separator name="electronic dipolcorrection" >
    <i type="logical" name="LDIPOL"> F  </i>
    <i type="logical" name="LMONO"> F  </i>
    <i type="int" name="IDIPOL">     0</i>
    <i name="EPSILON">      1.00000000</i>
    <v name="DIPOL">   -100.00000000   -100.00000000   -100.00000000</v>
    <i name="EFIELD">      0.00000000</i>
   </separator>
  </separator>
  <separator name="grids" >
   <i type="int" name="NGX">    24</i>
   <i type="int" name="NGY">    24</i>
   <i type="int" name="NGZ">   108</i>
   <i type="int" name="NGXF">    48</i>
   <i type="int" name="NGYF">    48</i>
   <i type="int" name="NGZF">   216</i>
   <i type="logical" name="ADDGRID"> F  </i>
  </separator>
  <separator name="ionic" >
   <i type="int" name="NSW">     0</i>
   <i type="int" name="IBRION">    -1</i>
   <i type="int" name="MDALGO">     0</i>
   <i type="int" name="ISIF">     2</i>
   <i name="PSTRESS">      0.00000000</i>
   <i name="EDIFFG">      0.00010000</i>
   <i type="int" name="NFREE">     0</i>
   <i name="POTIM">      0.50000000</i>
   <i name="SMASS">     -3.00000000</i>
   <i name="SCALEE">      1.00000000</i>
  </separator>
  <separator name="ionic md" >
   <i name="TEBEG">      0.00010000</i>
   <i name="TEEND">      0.00010000</i>
   <i type="int" name="NBLOCK">     1</i>
   <i type="int" name="KBLOCK">     1</i>
   <i type="int" name="NPACO">   256</i>
   <i name="APACO">     16.00000000</i>
  </separator>
  <separator name="symmetry" >
   <i type="int" name="ISYM">     2</i>
   <i name="SYMPREC">      0.00001000</i>
  </separator>
  <separator name="dos" >
   <i type="int" name="LORBIT">     0</i>
   <v name="RWIGS">     -1.00000000     -1.00000000</v>
   <i type="int" name="NEDOS">   301</i>
   <i name="EMIN">     10.00000000</i>
   <i name="EMAX">    -10.00000000</i>
   <i name="EFERMI">      0.00000000</i>
  </separator>
  <separator name="writing" >
   <i type="int" name="NWRITE">     2</i>
   <i type="logical" name="LWAVE"> F  </i>
   <i type="logical" name="LDOWNSAMPLE"> F  </i>
   <i type="logical" name="LCHARG"> T  </i>
   <i type="logical" name="LPARD"> F  </i>
   <i type="logical" name="LVTOT"> F  </i>
   <i type="logical" name="LVHAR"> F  </i>
   <i type="logical" name="LELF"> F  </i>
   <i type="logical" name="LOPTICS"> F  </i>
   <v name="STM">      0.00000000      0.00000000      0.00000000      0.00000000      0.00000000      0.00000000      0.00000000</v>
  </separator>
  <separator name="performance" >
   <i type="int" name="NPAR">     2</i>
   <i type="int" name="NSIM">     4</i>
   <i type="int" name="NBLK">    -1</i>
   <i type="logical" name="LPLANE"> T  </i>
   <i type="logical" name="LSCALAPACK"> T  </i>
   <i type="logical" name="LSCAAWARE"> F  </i>
   <i type="logical" name="LSCALU"> F  </i>
   <i type="logical" name="LASYNC"> F  </i>
   <i type="logical" name="LORBITALREAL"> F  </i>
  </separator>
  <separator name="miscellaneous" >
   <i type="int" name="IDIOT">     3</i>
   <i type="int" name="ISPECIAL">     0</i>
   <i type="logical" name="LMUSIC"> F  </i>
   <v name="POMASS">     95.94000000     32.06600000</v>
   <v name="DARWINR">      0.00000000      0.00000000</v>
   <v name="DARWINV">      1.00000000      1.00000000</v>
   <i type="logical" name="LCORR"> T  </i>
  </separator>
  <i type="logical" name="GGA_COMPAT"> T  </i>
  <i type="logical" name="LBERRY"> F  </i>
  <i type="int" name="ICORELEVEL">     0</i>
  <i type="logical" name="LDAU"> F  </i>
  <i type="int" name="I_CONSTRAINED_M">     0</i>
  <separator name="electronic exchange-correlation" >
   <i type="string" name="GGA">--</i>
   <i type="int" name="VOSKOWN">     0</i>
   <i type="logical" name="LHFCALC"> F  </i>
   <i type="string" name="PRECFOCK"></i>
   <i type="logical" name="LSYMGRAD"> F  </i>
   <i type="logical" name="LHFONE"> F  </i>
   <i type="logical" name="LRHFCALC"> F  </i>
   <i type="logical" name="LTHOMAS"> F  </i>
   <i type="logical" name="LMODELHF"> F  </i>
   <i name="ENCUT4O">     -1.00000000</i>
   <i type="int" name="EXXOEP">     0</i>
   <i type="int" name="FOURORBIT">     0</i>
   <i name="AEXX">      0.00000000</i>
   <i name="HFALPHA">      0.00000000</i>
   <i name="MCALPHA">      0.00000000</i>
   <i name="ALDAX">      1.00000000</i>
   <i name="AGGAX">      1.00000000</i>
   <i name="ALDAC">      1.00000000</i>
   <i name="AGGAC">      1.00000000</i>
   <i type="int" name="NKREDX">     1</i>
   <i type="int" name="NKREDY">     1</i>
   <i type="int" name="NKREDZ">     1</i>
   <i type="logical" name="SHIFTRED"> F  </i>
   <i type="logical" name="ODDONLY"> F  </i>
   <i type="logical" name="EVENONLY"> F  </i>
   <i type="int" name="LMAXFOCK">     0</i>
   <i type="int" name="NMAXFOCKAE">     0</i>
   <i type="logical" name="LFOCKAEDFT"> F  </i>
   <i name="HFSCREEN">      0.00000000</i>
   <i name="HFSCREENC">      0.00000000</i>
   <i type="int" name="NBANDSGWLOW">     0</i>
  </separator>
  <separator name="vdW DFT" >
   <i type="logical" name="LUSE_VDW"> F  </i>
   <i name="Zab_VDW">     -0.84910000</i>
   <i name="PARAM1">      0.12340000</i>
   <i name="PARAM2">      1.00000000</i>
   <i name="PARAM3">      0.00000000</i>
  </separator>
  <separator name="model GW" >
   <i type="int" name="MODEL_GW">     0</i>
   <i name="MODEL_EPS0">     13.11510680</i>
   <i name="MODEL_ALPHA">      1.00000000</i>
  </separator>
  <separator name="linear response parameters" >
   <i type="logical" name="LEPSILON"> F  </i>
   <i type="logical" name="LRPA"> F  </i>
   <i type="logical" name="LNABLA"> F  </i>
   <i type="logical" name="LVEL"> F  </i>
   <i type="int" name="KINTER">     0</i>
   <i name="CSHIFT">      0.10000000</i>
   <i name="OMEGAMAX">     -1.00000000</i>
   <i name="DEG_THRESHOLD">      0.00200000</i>
   <i name="RTIME">     -0.10000000</i>
   <i name="WPLASMAI">      0.00000000</i>
   <v name="DFIELD">      0.00000000      0.00000000      0.00000000</v>
   <v name="WPLASMA">      0.00000000      0.00000000      0.00000000      0.00000000      0.00000000      0.00000000      0.00000000      0.00000000      0.00000000</v>
  </separator>
  <separator name="orbital magnetization" >
   <i type="logical" name="NUCIND"> F  </i>
   <v name="MAGPOS">      0.00000000      0.00000000      0.00000000</v>
   <i type="logical" name="LNICSALL"> T  </i>
   <i type="logical" name="ORBITALMAG"> F  </i>
   <i type="logical" name="LMAGBLOCH"> F  </i>
   <i type="logical" name="LCHIMAG"> F  </i>
   <i type="logical" name="LGAUGE"> T  </i>
   <i type="int" name="MAGATOM">     0</i>
   <v name="MAGDIPOL">      0.00000000      0.00000000      0.00000000</v>
   <v name="AVECCONST">      0.00000000      0.00000000      0.00000000</v>
  </separator>
  <separator name="response functions" >
   <i type="logical" name="LADDER"> F  </i>
   <i type="logical" name="LRPAFORCE"> F  </i>
   <i type="logical" name="LFXC"> F  </i>
   <i type="logical" name="LHARTREE"> T  </i>
   <i type="int" name="IBSE">     0</i>
   <v type="int" name="KPOINT">    -1     0     0     0</v>
   <i type="logical" name="LTCTE"> F  </i>
   <i type="logical" name="LTETE"> F  </i>
   <i type="logical" name="LTRIPLET"> F  </i>
   <i type="logical" name="LFXCEPS"> F  </i>
   <i type="logical" name="LFXHEG"> F  </i>
   <i type="int" name="NATURALO">     2</i>
   <i type="logical" name="L2ORDER"> F  </i>
   <i type="logical" name="LMP2LT"> F  </i>
   <i type="logical" name="LUSEW"> F  </i>
   <i name="ENCUTGW">     -2.00000000</i>
   <i name="ENCUTGWSOFT">     -2.00000000</i>
   <i name="ENCUTLF">     -1.00000000</i>
   <i type="int" name="LMAXMP2">    -1</i>
   <i name="SCISSOR">      0.00000000</i>
   <i type="int" name="NOMEGA">     0</i>
   <i type="int" name="NOMEGAR">     0</i>
   <i type="int" name="NBANDSGW">    -1</i>
   <i type="int" name="NBANDSO">    -1</i>
   <i type="int" name="NBANDSV">    -1</i>
   <i type="int" name="NELM">     1</i>
   <i type="int" name="NELMHF">     1</i>
   <i type="int" name="DIM">     3</i>
   <i type="int" name="ANTIRES">     0</i>
   <i name="OMEGAMAX">    -30.00000000</i>
   <i name="OMEGAMIN">    -30.00000000</i>
   <i name="OMEGATL">   -200.00000000</i>
   <i type="int" name="OMEGAGRID">   140</i>
   <i name="CSHIFT">     -0.10000000</i>
   <i type="logical" name="SELFENERGY"> F  </i>
   <i type="logical" name="LSPECTRAL"> F  </i>
   <i type="logical" name="LSPECTRALGW"> F  </i>
   <i type="logical" name="LSINGLES"> F  </i>
   <i type="logical" name="LFERMIGW"> F  </i>
   <i type="logical" name="ODDONLYGW"> F  </i>
   <i type="logical" name="EVENONLYGW"> F  </i>
   <i type="int" name="NKREDLFX">     1</i>
   <i type="int" name="NKREDLFY">     1</i>
   <i type="int" name="NKREDLFZ">     1</i>
   <i type="int" name="MAXMEM">  2800</i>
   <i type="int" name="TELESCOPE">     0</i>
   <i type="int" name="TAUPAR">     1</i>
   <i type="int" name="OMEGAPAR">    -1</i>
   <i name="LAMBDA">      1.00000000</i>
  </separator>
  <separator name="External order field" >
   <i name="OFIELD_KAPPA">      0.00000000</i>
   <v name="OFIELD_K">      0.00000000      0.00000000      0.00000000</v>
   <i name="OFIELD_Q6_NEAR">      0.00000000</i>
   <i name="OFIELD_Q6_FAR">      0.00000000</i>
   <i name="OFIELD_A">      0.00000000</i>
  </separator>
 </parameters>
 <atominfo>
  <atoms>       6 </atoms>
  <types>       2 </types>
  <array name="atoms" >
   <dimension dim="1">ion</dimension>
   <field type="string">element</field>
   <field type="int">atomtype</field>
   <set>
    <rc><c>Mo</c><c>   1</c></rc>
    <rc><c>Mo</c><c>   1</c></rc>
    <rc><c>S </c><c>   2</c></rc>
    <rc><c>S </c><c>   2</c></rc>
    <rc><c>S </c><c>   2</c></rc>
    <rc><c>S </c><c>   2</c></rc>
   </set>
  </array>
  <array name="atomtypes" >
   <dimension dim="1">type</dimension>
   <field type="int">atomspertype</field>
   <field type="string">element</field>
   <field>mass</field>
   <field>valence</field>
   <field type="string">pseudopotential</field>
   <set>
    <rc><c>   2</c><c>Mo</c><c>     95.94000000</c><c>      6.00000000</c><c> PAW_PBE Mo 08Apr2002                   </c></rc>
    <rc><c>   4</c><c>S </c><c>     32.06600000</c><c>      6.00000000</c><c>  PAW_PBE S 17Jan2003                   </c></rc>
   </set>
  </array>
 </atominfo>
 <structure name="initialpos" >
  <crystal>
   <varray name="basis" >
    <v>       3.19031573       0.00000000       0.00000000 </v>
    <v>      -1.59515786       2.76289447       0.00000000 </v>
    <v>       0.00000000       0.00000000      14.87900430 </v>
   </varray>
   <i name="volume">    131.15106795 </i>
   <varray name="rec_basis" >
    <v>       0.31344860       0.18096963       0.00000000 </v>
    <v>       0.00000000       0.36193927       0.00000000 </v>
    <v>       0.00000000       0.00000000       0.06720880 </v>
   </varray>
  </crystal>
  <varray name="positions" >
   <v>       0.33333300       0.66666700       0.25000000 </v>
   <v>       0.66666700       0.33333300       0.75000000 </v>
   <v>       0.33333300       0.66666700       0.85517400 </v>
   <v>       0.66666700       0.33333300       0.14482600 </v>
   <v>       0.66666600       0.33333300       0.35517400 </v>
   <v>       0.33333400       0.66666700       0.64482600 </v>
  </varray>
 </structure>
 <calculation>
  <scstep>
   <time name="dav">    1.38    1.38</time>
   <time name="total">    1.47    1.52</time>
   <energy>
    <i name="alphaZ">     90.42577596 </i>
    <i name="ewald">  -1146.88905665 </i>
    <i name="hartreedc">   -535.10238363 </i>
    <i name="XCdc">    -72.59368065 </i>
    <i name="pawpsdc">    813.77302396 </i>
    <i name="pawaedc">   -658.68146406 </i>
    <i name="eentropy">      0.00000000 </i>
    <i name="bandstr">    244.57840926 </i>
    <i name="atom">   1542.32615392 </i>
    <i name="e_fr_energy">    277.83677812 </i>
    <i name="e_wo_entrp">    277.83677812 </i>
    <i name="e_0_energy">    277.83677812 </i>
   </energy>
  </scstep>
  <scstep>
   <time name="dav">    1.73    1.73</time>
   <time name="total">    1.73    1.74</time>
   <energy>
    <i name="e_fr_energy">    -18.98620689 </i>
    <i name="e_wo_entrp">    -18.98620689 </i>
    <i name="e_0_energy">    -18.98620689 </i>
   </energy>
  </scstep>
  <scstep>
   <time name="dav">    1.81    1.81</time>
   <time name="total">    1.81    1.81</time>
   <energy>
    <i name="e_fr_energy">    -45.99084440 </i>
    <i name="e_wo_entrp">    -45.99084440 </i>
    <i name="e_0_energy">    -45.99084440 </i>
   </energy>
  </scstep>
  <scstep>
   <time name="dav">    1.73    1.74</time>
   <time name="total">    1.73    1.74</time>
   <energy>
    <i name="e_fr_energy">    -46.79843002 </i>
    <i name="e_wo_entrp">    -46.79843002 </i>
    <i name="e_0_energy">    -46.79843002 </i>
   </energy>
  </scstep>
  <scstep>
   <time name="dav">    1.77    1.77</time>
   <time name="total">    1.87    1.87</time>
   <energy>
    <i name="e_fr_energy">    -46.82427003 </i>
    <i name="e_wo_entrp">    -46.82427003 </i>
    <i name="e_0_energy">    -46.82427003 </i>
   </energy>
  </scstep>
  <scstep>
   <time name="diag">    0.22    0.23</time>
   <time name="diis">    1.21    1.21</time>
   <time name="orth">    0.02    0.02</time>
   <time name="total">    1.64    1.65</time>
   <energy>
    <i name="e_fr_energy">    -44.44030223 </i>
    <i name="e_wo_entrp">    -44.44030223 </i>
    <i name="e_0_energy">    -44.44030223 </i>
   </energy>
  </scstep>
  <scstep>
   <time name="diag">    0.22    0.22</time>
   <time name="diis">    1.19    1.19</time>
   <time name="orth">    0.02    0.02</time>
   <time name="total">    1.61    1.62</time>
   <energy>
    <i name="e_fr_energy">    -43.69901749 </i>
    <i name="e_wo_entrp">    -43.69901749 </i>
    <i name="e_0_energy">    -43.69901749 </i>
   </energy>
  </scstep>
  <scstep>
   <time name="diag">    0.22    0.22</time>
   <time name="diis">    1.25    1.25</time>
   <time name="orth">    0.02    0.02</time>
   <time name="total">    1.67    1.68</time>
   <energy>
    <i name="e_fr_energy">    -43.63646134 </i>
    <i name="e_wo_entrp">    -43.63646134 </i>
    <i name="e_0_energy">    -43.63646134 </i>
   </energy>
  </scstep>
  <scstep>
   <time name="diag">    0.22    0.22</time>
   <time name="diis">    1.30    1.30</time>
   <time name="orth">    0.02    0.02</time>
   <time name="total">    1.73    1.73</time>
   <energy>
    <i name="e_fr_energy">    -43.62529718 </i>
    <i name="e_wo_entrp">    -43.62529718 </i>
    <i name="e_0_energy">    -43.62529718 </i>
   </energy>
  </scstep>
  <scstep>
   <time name="diag">    0.22    0.22</time>
   <time name="diis">    1.31    1.31</time>
   <time name="orth">    0.02    0.02</time>
   <time name="total">    1.74    1.74</time>
   <energy>
    <i name="e_fr_energy">    -43.60980097 </i>
    <i name="e_wo_entrp">    -43.60980097 </i>
    <i name="e_0_energy">    -43.60980097 </i>
   </energy>
  </scstep>
  <scstep>
   <time name="diag">    0.22    0.22</time>
   <time name="diis">    1.35    1.35</time>
   <time name="orth">    0.02    0.02</time>
   <time name="total">    1.77    1.77</time>
   <energy>
    <i name="e_fr_energy">    -43.60975477 </i>
    <i name="e_wo_entrp">    -43.60975477 </i>
    <i name="e_0_energy">    -43.60975477 </i>
   </energy>
  </scstep>
  <scstep>
   <time name="diag">    0.22    0.22</time>
   <time name="diis">    1.36    1.36</time>
   <time name="orth">    0.02    0.02</time>
   <time name="total">    1.79    1.79</time>
   <energy>
    <i name="e_fr_energy">    -43.60990269 </i>
    <i name="e_wo_entrp">    -43.60990269 </i>
    <i name="e_0_energy">    -43.60990269 </i>
   </energy>
  </scstep>
  <scstep>
   <time name="diag">    0.22    0.22</time>
   <time name="diis">    1.38    1.38</time>
   <time name="orth">    0.02    0.02</time>
   <time name="total">    1.81    1.81</time>
   <energy>
    <i name="e_fr_energy">    -43.60990762 </i>
    <i name="e_wo_entrp">    -43.60990762 </i>
    <i name="e_0_energy">    -43.60990762 </i>
   </energy>
  </scstep>
  <scstep>
   <time name="diag">    0.22    0.22</time>
   <time name="diis">    1.07    1.07</time>
   <time name="orth">    0.02    0.02</time>
   <time name="total">    1.50    1.50</time>
   <energy>
    <i name="e_fr_energy">    -43.60989530 </i>
    <i name="e_wo_entrp">    -43.60989530 </i>
    <i name="e_0_energy">    -43.60989530 </i>
   </energy>
  </scstep>
  <scstep>
   <time name="diag">    0.22    0.22</time>
   <time name="diis">    0.88    0.88</time>
   <time name="orth">    0.02    0.02</time>
   <time name="total">    1.21    1.21</time>
   <energy>
    <i name="alphaZ">     90.42577596 </i>
    <i name="ewald">  -1146.88905665 </i>
    <i name="hartreedc">   -542.96551536 </i>
    <i name="XCdc">    -70.38675849 </i>
    <i name="pawpsdc">    943.60195721 </i>
    <i name="pawaedc">   -791.98427639 </i>
    <i name="eentropy">      0.00000000 </i>
    <i name="bandstr">    -67.73817575 </i>
    <i name="atom">   1542.32615392 </i>
    <i name="e_fr_energy">    -43.60989554 </i>
    <i name="e_wo_entrp">    -43.60989554 </i>
    <i name="e_0_energy">    -43.60989554 </i>
   </energy>
  </scstep>
  <structure>
   <crystal>
    <varray name="basis" >
     <v>       3.19031573       0.00000000       0.00000000 </v>
     <v>      -1.59515786       2.76289447       0.00000000 </v>
     <v>       0.00000000       0.00000000      14.87900430 </v>
    </varray>
    <i name="volume">    131.15106795 </i>
    <varray name="rec_basis" >
     <v>       0.31344860       0.18096963       0.00000000 </v>
     <v>       0.00000000       0.36193927       0.00000000 </v>
     <v>       0.00000000       0.00000000       0.06720880 </v>
    </varray>
   </crystal>
   <varray name="positions" >
    <v>       0.33333300       0.66666700       0.25000000 </v>
    <v>       0.66666700       0.33333300       0.75000000 </v>
    <v>       0.33333300       0.66666700       0.85517400 </v>
    <v>       0.66666700       0.33333300       0.14482600 </v>
    <v>       0.66666600       0.33333300       0.35517400 </v>
    <v>       0.33333400       0.66666700       0.64482600 </v>
   </varray>
  </structure>
  <varray name="forces" >
   <v>      -0.00000000      -0.00000000      -0.00000000 </v>
   <v>      -0.00000000      -0.00000000      -0.00000000 </v>
   <v>       0.00000000      -0.00000000      -0.08561269 </v>
   <v>      -0.00000000       0.00000000       0.08561269 </v>
   <v>      -0.00000000       0.00000000      -0.08561269 </v>
   <v>       0.00000000      -0.00000000       0.08561269 </v>
  </varray>
  <varray name="stress" >
   <v>      -4.61505645       0.00000000       0.00000000 </v>
   <v>       0.00000000      -4.61505645      -0.00000000 </v>
   <v>       0.00000000       0.00000000     -16.08973424 </v>
  </varray>
  <energy>
   <i name="e_fr_energy">    -44.94118255 </i>
   <i name="e_wo_entrp">    -44.94118255 </i>
   <i name="e_0_energy">      0.00000000 </i>
  </energy>
  <time name="totalsc">   27.12   27.30</time>
  <eigenvalues>
   <array>
    <dimension dim="1">band</dimension>
    <dimension dim="2">kpoint</dimension>
    <dimension dim="3">spin</dimension>
    <field>eigene</field>
    <field>occ</field>
    <set>
     <set comment="spin 1">
      <set comment="kpoint 1">
       <r>  -10.9296    1.0000 </r>
       <r>  -10.9106    1.0000 </r>
       <r>   -9.7291    1.0000 </r>
       <r>   -9.6951    1.0000 </r>
       <r>   -2.5236    1.0000 </r>
       <r>   -2.3622    1.0000 </r>
       <r>    0.5196    1.0000 </r>
       <r>    0.5196    1.0000 </r>
       <r>    0.5201    1.0000 </r>
       <r>    0.5201    1.0000 </r>
       <r>    1.1059    1.0000 </r>
       <r>    1.6245    1.0000 </r>
       <r>    1.6245    1.0000 </r>
       <r>    1.6264    1.0000 </r>
       <r>    1.6264    1.0000 </r>
       <r>    1.6743    1.0000 </r>
       <r>    2.9224    1.0000 </r>
       <r>    3.2982    1.0000 </r>
       <r>    5.8776    0.0000 </r>
       <r>    5.8871    0.0000 </r>
       <r>    5.9637    0.0000 </r>
       <r>    6.0440    0.0000 </r>
      </set>
      <set comment="kpoint 2">
       <r>  -10.7152    1.0000 </r>
       <r>  -10.6966    1.0000 </r>
       <r>   -9.6255    1.0000 </r>
       <r>   -9.5940    1.0000 </r>
       <r>   -2.2778    1.0000 </r>
       <r>   -2.1189    1.0000 </r>
       <r>    0.0551    1.0000 </r>
       <r>    0.0578    1.0000 </r>
       <r>    0.4564    1.0000 </r>
       <r>    0.6725    1.0000 </r>
       <r>    0.7537    1.0000 </r>
       <r>    0.7549    1.0000 </r>
       <r>    1.2884    1.0000 </r>
       <r>    1.2910    1.0000 </r>
       <r>    1.9304    1.0000 </r>
       <r>    2.2143    1.0000 </r>
       <r>    2.8433    1.0000 </r>
       <r>    3.0853    1.0000 </r>
       <r>    5.5181    0.0000 </r>
       <r>    5.6609    0.0000 </r>
       <r>    5.7421    0.0000 </r>
       <r>    5.8612    0.0000 </r>
      </set>
      <set comment="kpoint 3">
       <r>  -10.1455    1.0000 </r>
       <r>  -10.1288    1.0000 </r>
       <r>   -9.3531    1.0000 </r>
       <r>   -9.3287    1.0000 </r>
       <r>   -1.8879    1.0000 </r>
       <r>   -1.7770    1.0000 </r>
       <r>   -0.6916    1.0000 </r>
       <r>   -0.6481    1.0000 </r>
       <r>   -0.4614    1.0000 </r>
       <r>   -0.3599    1.0000 </r>
       <r>    0.6530    1.0000 </r>
       <r>    0.6564    1.0000 </r>
       <r>    1.3396    1.0000 </r>
       <r>    1.3431    1.0000 </r>
       <r>    1.7039    1.0000 </r>
       <r>    1.9127    1.0000 </r>
       <r>    2.3697    1.0000 </r>
       <r>    2.4182    1.0000 </r>
       <r>    5.1187    0.0000 </r>
       <r>    5.4389    0.0000 </r>
       <r>    5.4434    0.0000 </r>
       <r>    5.4589    0.0000 </r>
      </set>
      <set comment="kpoint 4">
       <r>   -9.4680    1.0000 </r>
       <r>   -9.4561    1.0000 </r>
       <r>   -9.0396    1.0000 </r>
       <r>   -9.0253    1.0000 </r>
       <r>   -2.2854    1.0000 </r>
       <r>   -2.2507    1.0000 </r>
       <r>   -1.2977    1.0000 </r>
       <r>   -1.2547    1.0000 </r>
       <r>   -0.8466    1.0000 </r>
       <r>   -0.7616    1.0000 </r>
       <r>    0.1554    1.0000 </r>
       <r>    0.1593    1.0000 </r>
       <r>    1.3419    1.0000 </r>
       <r>    1.4494    1.0000 </r>
       <r>    1.9277    1.0000 </r>
       <r>    1.9363    1.0000 </r>
       <r>    2.1733    1.0000 </r>
       <r>    2.2241    1.0000 </r>
       <r>    5.2594    0.0000 </r>
       <r>    5.2685    0.0000 </r>
       <r>    5.4544    0.0000 </r>
       <r>    5.6330    0.0000 </r>
      </set>
      <set comment="kpoint 5">
       <r>   -9.1371    1.0000 </r>
       <r>   -9.1305    1.0000 </r>
       <r>   -8.8923    1.0000 </r>
       <r>   -8.8859    1.0000 </r>
       <r>   -2.6138    1.0000 </r>
       <r>   -2.5868    1.0000 </r>
       <r>   -1.6530    1.0000 </r>
       <r>   -1.6285    1.0000 </r>
       <r>   -0.9684    1.0000 </r>
       <r>   -0.8925    1.0000 </r>
       <r>   -0.0253    1.0000 </r>
       <r>   -0.0212    1.0000 </r>
       <r>    1.2464    1.0000 </r>
       <r>    1.2659    1.0000 </r>
       <r>    2.1530    1.0000 </r>
       <r>    2.1651    1.0000 </r>
       <r>    2.4770    1.0000 </r>
       <r>    2.4808    1.0000 </r>
       <r>    5.2843    0.0000 </r>
       <r>    5.2881    0.0000 </r>
       <r>    5.7739    0.0000 </r>
       <r>    5.8292    0.0000 </r>
      </set>
      <set comment="kpoint 6">
       <r>  -10.3218    1.0000 </r>
       <r>  -10.3044    1.0000 </r>
       <r>   -9.4360    1.0000 </r>
       <r>   -9.4093    1.0000 </r>
       <r>   -1.9210    1.0000 </r>
       <r>   -1.7813    1.0000 </r>
       <r>   -0.5138    1.0000 </r>
       <r>   -0.5012    1.0000 </r>
       <r>   -0.0652    1.0000 </r>
       <r>    0.0768    1.0000 </r>
       <r>    0.4638    1.0000 </r>
       <r>    0.4899    1.0000 </r>
       <r>    1.0929    1.0000 </r>
       <r>    1.0947    1.0000 </r>
       <r>    2.0956    1.0000 </r>
       <r>    2.2980    1.0000 </r>
       <r>    2.5520    1.0000 </r>
       <r>    2.6276    1.0000 </r>
       <r>    5.0621    0.0000 </r>
       <r>    5.3281    0.0000 </r>
       <r>    5.5320    0.0000 </r>
       <r>    5.5791    0.0000 </r>
      </set>
      <set comment="kpoint 7">
       <r>   -9.6866    1.0000 </r>
       <r>   -9.6725    1.0000 </r>
       <r>   -9.1332    1.0000 </r>
       <r>   -9.1150    1.0000 </r>
       <r>   -1.9397    1.0000 </r>
       <r>   -1.8866    1.0000 </r>
       <r>   -0.9512    1.0000 </r>
       <r>   -0.9200    1.0000 </r>
       <r>   -0.7085    1.0000 </r>
       <r>   -0.6351    1.0000 </r>
       <r>   -0.0668    1.0000 </r>
       <r>    0.0079    1.0000 </r>
       <r>    1.1902    1.0000 </r>
       <r>    1.1961    1.0000 </r>
       <r>    1.7871    1.0000 </r>
       <r>    1.8735    1.0000 </r>
       <r>    2.3022    1.0000 </r>
       <r>    2.3120    1.0000 </r>
       <r>    4.9960    0.0000 </r>
       <r>    5.2122    0.0000 </r>
       <r>    5.5529    0.0000 </r>
       <r>    5.6854    0.0000 </r>
      </set>
      <set comment="kpoint 8">
       <r>   -9.1529    1.0000 </r>
       <r>   -9.1452    1.0000 </r>
       <r>   -8.8843    1.0000 </r>
       <r>   -8.8760    1.0000 </r>
       <r>   -2.3265    1.0000 </r>
       <r>   -2.2996    1.0000 </r>
       <r>   -1.7023    1.0000 </r>
       <r>   -1.6932    1.0000 </r>
       <r>   -0.8380    1.0000 </r>
       <r>   -0.7674    1.0000 </r>
       <r>   -0.0673    1.0000 </r>
       <r>   -0.0249    1.0000 </r>
       <r>    1.1999    1.0000 </r>
       <r>    1.2162    1.0000 </r>
       <r>    1.3282    1.0000 </r>
       <r>    1.3665    1.0000 </r>
       <r>    2.6246    1.0000 </r>
       <r>    2.6429    1.0000 </r>
       <r>    5.2706    0.0000 </r>
       <r>    5.3349    0.0000 </r>
       <r>    5.7785    0.0000 </r>
       <r>    5.8540    0.0000 </r>
      </set>
      <set comment="kpoint 9">
       <r>   -9.1683    1.0000 </r>
       <r>   -9.1597    1.0000 </r>
       <r>   -8.8761    1.0000 </r>
       <r>   -8.8662    1.0000 </r>
       <r>   -1.9673    1.0000 </r>
       <r>   -1.9387    1.0000 </r>
       <r>   -1.7537    1.0000 </r>
       <r>   -1.7426    1.0000 </r>
       <r>   -0.4882    1.0000 </r>
       <r>   -0.4638    1.0000 </r>
       <r>   -0.1393    1.0000 </r>
       <r>   -0.0511    1.0000 </r>
       <r>    0.2146    1.0000 </r>
       <r>    0.2372    1.0000 </r>
       <r>    1.4762    1.0000 </r>
       <r>    1.4868    1.0000 </r>
       <r>    2.6006    1.0000 </r>
       <r>    2.6103    1.0000 </r>
       <r>    5.1855    0.0000 </r>
       <r>    5.3137    0.0000 </r>
       <r>    5.8981    0.0000 </r>
       <r>    6.0975    0.0000 </r>
      </set>
      <set comment="kpoint 10">
       <r>   -8.9307    1.0000 </r>
       <r>   -8.9276    1.0000 </r>
       <r>   -8.7536    1.0000 </r>
       <r>   -8.7504    1.0000 </r>
       <r>   -2.1379    1.0000 </r>
       <r>   -2.1272    1.0000 </r>
       <r>   -1.7918    1.0000 </r>
       <r>   -1.7757    1.0000 </r>
       <r>   -0.7781    1.0000 </r>
       <r>   -0.7409    1.0000 </r>
       <r>   -0.1071    1.0000 </r>
       <r>   -0.0862    1.0000 </r>
       <r>    0.1069    1.0000 </r>
       <r>    0.1578    1.0000 </r>
       <r>    1.0756    1.0000 </r>
       <r>    1.1155    1.0000 </r>
       <r>    2.9621    1.0000 </r>
       <r>    2.9833    1.0000 </r>
       <r>    4.9237    0.0000 </r>
       <r>    4.9326    0.0000 </r>
       <r>    6.1509    0.0000 </r>
       <r>    6.3305    0.0000 </r>
      </set>
      <set comment="kpoint 11">
       <r>  -10.9202    1.0000 </r>
       <r>  -10.9202    1.0000 </r>
       <r>   -9.7120    1.0000 </r>
       <r>   -9.7120    1.0000 </r>
       <r>   -2.4457    1.0000 </r>
       <r>   -2.4457    1.0000 </r>
       <r>    0.5198    1.0000 </r>
       <r>    0.5198    1.0000 </r>
       <r>    0.5198    1.0000 </r>
       <r>    0.5198    1.0000 </r>
       <r>    1.3627    1.0000 </r>
       <r>    1.3627    1.0000 </r>
       <r>    1.6254    1.0000 </r>
       <r>    1.6254    1.0000 </r>
       <r>    1.6255    1.0000 </r>
       <r>    1.6255    1.0000 </r>
       <r>    3.1409    1.0000 </r>
       <r>    3.1409    1.0000 </r>
       <r>    5.8773    0.0000 </r>
       <r>    5.9170    0.0000 </r>
       <r>    5.9774    0.0000 </r>
       <r>    6.0797    0.0000 </r>
      </set>
      <set comment="kpoint 12">
       <r>  -10.7060    1.0000 </r>
       <r>  -10.7060    1.0000 </r>
       <r>   -9.6096    1.0000 </r>
       <r>   -9.6096    1.0000 </r>
       <r>   -2.2014    1.0000 </r>
       <r>   -2.2014    1.0000 </r>
       <r>    0.0561    1.0000 </r>
       <r>    0.0561    1.0000 </r>
       <r>    0.5711    1.0000 </r>
       <r>    0.5711    1.0000 </r>
       <r>    0.7543    1.0000 </r>
       <r>    0.7543    1.0000 </r>
       <r>    1.2897    1.0000 </r>
       <r>    1.2897    1.0000 </r>
       <r>    2.0426    1.0000 </r>
       <r>    2.0426    1.0000 </r>
       <r>    2.9903    1.0000 </r>
       <r>    2.9903    1.0000 </r>
       <r>    5.5749    0.0000 </r>
       <r>    5.5767    0.0000 </r>
       <r>    5.7096    0.0000 </r>
       <r>    5.7697    0.0000 </r>
      </set>
      <set comment="kpoint 13">
       <r>  -10.1373    1.0000 </r>
       <r>  -10.1373    1.0000 </r>
       <r>   -9.3408    1.0000 </r>
       <r>   -9.3408    1.0000 </r>
       <r>   -1.8343    1.0000 </r>
       <r>   -1.8343    1.0000 </r>
       <r>   -0.6755    1.0000 </r>
       <r>   -0.6755    1.0000 </r>
       <r>   -0.4027    1.0000 </r>
       <r>   -0.4027    1.0000 </r>
       <r>    0.6547    1.0000 </r>
       <r>    0.6547    1.0000 </r>
       <r>    1.3414    1.0000 </r>
       <r>    1.3414    1.0000 </r>
       <r>    1.8004    1.0000 </r>
       <r>    1.8004    1.0000 </r>
       <r>    2.3994    1.0000 </r>
       <r>    2.3994    1.0000 </r>
       <r>    5.2601    0.0000 </r>
       <r>    5.2616    0.0000 </r>
       <r>    5.4455    0.0000 </r>
       <r>    5.4500    0.0000 </r>
      </set>
      <set comment="kpoint 14">
       <r>   -9.4622    1.0000 </r>
       <r>   -9.4622    1.0000 </r>
       <r>   -9.0323    1.0000 </r>
       <r>   -9.0323    1.0000 </r>
       <r>   -2.2682    1.0000 </r>
       <r>   -2.2682    1.0000 </r>
       <r>   -1.2781    1.0000 </r>
       <r>   -1.2781    1.0000 </r>
       <r>   -0.8021    1.0000 </r>
       <r>   -0.8021    1.0000 </r>
       <r>    0.1574    1.0000 </r>
       <r>    0.1574    1.0000 </r>
       <r>    1.3936    1.0000 </r>
       <r>    1.3936    1.0000 </r>
       <r>    1.9320    1.0000 </r>
       <r>    1.9320    1.0000 </r>
       <r>    2.2007    1.0000 </r>
       <r>    2.2007    1.0000 </r>
       <r>    5.2639    0.0000 </r>
       <r>    5.2639    0.0000 </r>
       <r>    5.5374    0.0000 </r>
       <r>    5.5375    0.0000 </r>
      </set>
      <set comment="kpoint 15">
       <r>   -9.1339    1.0000 </r>
       <r>   -9.1339    1.0000 </r>
       <r>   -8.8891    1.0000 </r>
       <r>   -8.8891    1.0000 </r>
       <r>   -2.6004    1.0000 </r>
       <r>   -2.6004    1.0000 </r>
       <r>   -1.6416    1.0000 </r>
       <r>   -1.6416    1.0000 </r>
       <r>   -0.9295    1.0000 </r>
       <r>   -0.9295    1.0000 </r>
       <r>   -0.0232    1.0000 </r>
       <r>   -0.0232    1.0000 </r>
       <r>    1.2560    1.0000 </r>
       <r>    1.2560    1.0000 </r>
       <r>    2.1591    1.0000 </r>
       <r>    2.1591    1.0000 </r>
       <r>    2.4790    1.0000 </r>
       <r>    2.4790    1.0000 </r>
       <r>    5.2862    0.0000 </r>
       <r>    5.2862    0.0000 </r>
       <r>    5.8018    0.0000 </r>
       <r>    5.8019    0.0000 </r>
      </set>
      <set comment="kpoint 16">
       <r>  -10.3132    1.0000 </r>
       <r>  -10.3132    1.0000 </r>
       <r>   -9.4226    1.0000 </r>
       <r>   -9.4226    1.0000 </r>
       <r>   -1.8540    1.0000 </r>
       <r>   -1.8540    1.0000 </r>
       <r>   -0.5092    1.0000 </r>
       <r>   -0.5092    1.0000 </r>
       <r>    0.0126    1.0000 </r>
       <r>    0.0126    1.0000 </r>
       <r>    0.4758    1.0000 </r>
       <r>    0.4758    1.0000 </r>
       <r>    1.0938    1.0000 </r>
       <r>    1.0938    1.0000 </r>
       <r>    2.1815    1.0000 </r>
       <r>    2.1815    1.0000 </r>
       <r>    2.6015    1.0000 </r>
       <r>    2.6015    1.0000 </r>
       <r>    5.1827    0.0000 </r>
       <r>    5.1851    0.0000 </r>
       <r>    5.5521    0.0000 </r>
       <r>    5.5759    0.0000 </r>
      </set>
      <set comment="kpoint 17">
       <r>   -9.6796    1.0000 </r>
       <r>   -9.6796    1.0000 </r>
       <r>   -9.1240    1.0000 </r>
       <r>   -9.1240    1.0000 </r>
       <r>   -1.9135    1.0000 </r>
       <r>   -1.9135    1.0000 </r>
       <r>   -0.9375    1.0000 </r>
       <r>   -0.9374    1.0000 </r>
       <r>   -0.6717    1.0000 </r>
       <r>   -0.6717    1.0000 </r>
       <r>   -0.0268    1.0000 </r>
       <r>   -0.0268    1.0000 </r>
       <r>    1.1930    1.0000 </r>
       <r>    1.1930    1.0000 </r>
       <r>    1.8282    1.0000 </r>
       <r>    1.8282    1.0000 </r>
       <r>    2.3078    1.0000 </r>
       <r>    2.3078    1.0000 </r>
       <r>    5.1026    0.0000 </r>
       <r>    5.1027    0.0000 </r>
       <r>    5.5545    0.0000 </r>
       <r>    5.5608    0.0000 </r>
      </set>
      <set comment="kpoint 18">
       <r>   -9.1491    1.0000 </r>
       <r>   -9.1491    1.0000 </r>
       <r>   -8.8801    1.0000 </r>
       <r>   -8.8801    1.0000 </r>
       <r>   -2.3132    1.0000 </r>
       <r>   -2.3132    1.0000 </r>
       <r>   -1.6979    1.0000 </r>
       <r>   -1.6979    1.0000 </r>
       <r>   -0.8035    1.0000 </r>
       <r>   -0.8035    1.0000 </r>
       <r>   -0.0447    1.0000 </r>
       <r>   -0.0447    1.0000 </r>
       <r>    1.2073    1.0000 </r>
       <r>    1.2073    1.0000 </r>
       <r>    1.3473    1.0000 </r>
       <r>    1.3474    1.0000 </r>
       <r>    2.6340    1.0000 </r>
       <r>    2.6340    1.0000 </r>
       <r>    5.3031    0.0000 </r>
       <r>    5.3031    0.0000 </r>
       <r>    5.8120    0.0000 </r>
       <r>    5.8182    0.0000 </r>
      </set>
      <set comment="kpoint 19">
       <r>   -9.1641    1.0000 </r>
       <r>   -9.1641    1.0000 </r>
       <r>   -8.8711    1.0000 </r>
       <r>   -8.8711    1.0000 </r>
       <r>   -1.9532    1.0000 </r>
       <r>   -1.9532    1.0000 </r>
       <r>   -1.7480    1.0000 </r>
       <r>   -1.7480    1.0000 </r>
       <r>   -0.4798    1.0000 </r>
       <r>   -0.4797    1.0000 </r>
       <r>   -0.0910    1.0000 </r>
       <r>   -0.0910    1.0000 </r>
       <r>    0.2261    1.0000 </r>
       <r>    0.2261    1.0000 </r>
       <r>    1.4805    1.0000 </r>
       <r>    1.4805    1.0000 </r>
       <r>    2.6055    1.0000 </r>
       <r>    2.6055    1.0000 </r>
       <r>    5.2494    0.0000 </r>
       <r>    5.2498    0.0000 </r>
       <r>    5.8650    0.0000 </r>
       <r>    6.1659    0.0000 </r>
      </set>
      <set comment="kpoint 20">
       <r>   -8.9291    1.0000 </r>
       <r>   -8.9291    1.0000 </r>
       <r>   -8.7520    1.0000 </r>
       <r>   -8.7520    1.0000 </r>
       <r>   -2.1326    1.0000 </r>
       <r>   -2.1326    1.0000 </r>
       <r>   -1.7835    1.0000 </r>
       <r>   -1.7835    1.0000 </r>
       <r>   -0.7605    1.0000 </r>
       <r>   -0.7605    1.0000 </r>
       <r>   -0.0993    1.0000 </r>
       <r>   -0.0993    1.0000 </r>
       <r>    0.1372    1.0000 </r>
       <r>    0.1372    1.0000 </r>
       <r>    1.0940    1.0000 </r>
       <r>    1.0940    1.0000 </r>
       <r>    2.9727    1.0000 </r>
       <r>    2.9727    1.0000 </r>
       <r>    4.9283    0.0000 </r>
       <r>    4.9283    0.0000 </r>
       <r>    6.2282    0.0000 </r>
       <r>    6.2342    0.0000 </r>
      </set>
     </set>
    </set>
   </array>
  </eigenvalues>
  <separator name="orbital magnetization" >
   <v name="MAGDIPOLOUT">      0.00000000      0.00000000      0.00000000</v>
  </separator>
  <dos>
   <i name="efermi">      3.30782952 </i>
   <total>
    <array>
     <dimension dim="1">gridpoints</dimension>
     <dimension dim="2">spin</dimension>
     <field>energy</field>
     <field>total</field>
     <field>integrated</field>
     <set>
      <set comment="spin 1">
       <r>   -12.9296     0.0000     0.0000 </r>
       <r>   -12.8587     0.0000     0.0000 </r>
       <r>   -12.7878     0.0000     0.0000 </r>
       <r>   -12.7170     0.0000     0.0000 </r>
       <r>   -12.6461     0.0000     0.0000 </r>
       <r>   -12.5752     0.0000     0.0000 </r>
       <r>   -12.5044     0.0000     0.0000 </r>
       <r>   -12.4335     0.0000     0.0000 </r>
       <r>   -12.3626     0.0000     0.0000 </r>
       <r>   -12.2918     0.0000     0.0000 </r>
       <r>   -12.2209     0.0000     0.0000 </r>
       <r>   -12.1500     0.0000     0.0000 </r>
       <r>   -12.0792     0.0000     0.0000 </r>
       <r>   -12.0083     0.0000     0.0000 </r>
       <r>   -11.9374     0.0000     0.0000 </r>
       <r>   -11.8666     0.0000     0.0000 </r>
       <r>   -11.7957     0.0000     0.0000 </r>
       <r>   -11.7248     0.0000     0.0000 </r>
       <r>   -11.6540     0.0000     0.0000 </r>
       <r>   -11.5831     0.0000     0.0000 </r>
       <r>   -11.5122     0.0000     0.0000 </r>
       <r>   -11.4414     0.0000     0.0000 </r>
       <r>   -11.3705     0.0000     0.0000 </r>
       <r>   -11.2996     0.0000     0.0000 </r>
       <r>   -11.2288     0.0000     0.0000 </r>
       <r>   -11.1579     0.0000     0.0000 </r>
       <r>   -11.0870     0.0000     0.0000 </r>
       <r>   -11.0162     0.0000     0.0000 </r>
       <r>   -10.9453     0.0000     0.0000 </r>
       <r>   -10.8744     0.3737     0.0087 </r>
       <r>   -10.8036     0.9532     0.0557 </r>
       <r>   -10.7327     1.5328     0.1438 </r>
       <r>   -10.6618     0.9956     0.2306 </r>
       <r>   -10.5910     1.0612     0.3035 </r>
       <r>   -10.5201     1.1269     0.3810 </r>
       <r>   -10.4492     1.1926     0.4632 </r>
       <r>   -10.3784     1.2583     0.5500 </r>
       <r>   -10.3075     1.3194     0.6415 </r>
       <r>   -10.2366     1.3314     0.7354 </r>
       <r>   -10.1658     1.3433     0.8302 </r>
       <r>   -10.0949     1.3809     0.9264 </r>
       <r>   -10.0240     1.4358     1.0262 </r>
       <r>    -9.9532     1.4907     1.1299 </r>
       <r>    -9.8823     1.5456     1.2375 </r>
       <r>    -9.8114     1.6006     1.3489 </r>
       <r>    -9.7406     1.6555     1.4643 </r>
       <r>    -9.6697     3.3756     1.6187 </r>
       <r>    -9.5988     4.3537     1.9330 </r>
       <r>    -9.5280     4.5983     2.2421 </r>
       <r>    -9.4571     5.0963     2.5854 </r>
       <r>    -9.3862     5.5621     2.9651 </r>
       <r>    -9.3154     5.9875     3.3726 </r>
       <r>    -9.2445     6.5510     3.8169 </r>
       <r>    -9.1736     7.1147     4.3011 </r>
       <r>    -9.1028     8.4791     5.0894 </r>
       <r>    -9.0319     8.3407     5.6849 </r>
       <r>    -8.9610     8.6841     6.2878 </r>
       <r>    -8.8902     9.7972     6.9292 </r>
       <r>    -8.8193     6.2157     7.6222 </r>
       <r>    -8.7484     0.0000     8.0000 </r>
       <r>    -8.6775     0.0000     8.0000 </r>
       <r>    -8.6067     0.0000     8.0000 </r>
       <r>    -8.5358     0.0000     8.0000 </r>
       <r>    -8.4649     0.0000     8.0000 </r>
       <r>    -8.3941     0.0000     8.0000 </r>
       <r>    -8.3232     0.0000     8.0000 </r>
       <r>    -8.2523     0.0000     8.0000 </r>
       <r>    -8.1815     0.0000     8.0000 </r>
       <r>    -8.1106     0.0000     8.0000 </r>
       <r>    -8.0397     0.0000     8.0000 </r>
       <r>    -7.9689     0.0000     8.0000 </r>
       <r>    -7.8980     0.0000     8.0000 </r>
       <r>    -7.8271     0.0000     8.0000 </r>
       <r>    -7.7563     0.0000     8.0000 </r>
       <r>    -7.6854     0.0000     8.0000 </r>
       <r>    -7.6145     0.0000     8.0000 </r>
       <r>    -7.5437     0.0000     8.0000 </r>
       <r>    -7.4728     0.0000     8.0000 </r>
       <r>    -7.4019     0.0000     8.0000 </r>
       <r>    -7.3311     0.0000     8.0000 </r>
       <r>    -7.2602     0.0000     8.0000 </r>
       <r>    -7.1893     0.0000     8.0000 </r>
       <r>    -7.1185     0.0000     8.0000 </r>
       <r>    -7.0476     0.0000     8.0000 </r>
       <r>    -6.9767     0.0000     8.0000 </r>
       <r>    -6.9059     0.0000     8.0000 </r>
       <r>    -6.8350     0.0000     8.0000 </r>
       <r>    -6.7641     0.0000     8.0000 </r>
       <r>    -6.6933     0.0000     8.0000 </r>
       <r>    -6.6224     0.0000     8.0000 </r>
       <r>    -6.5515     0.0000     8.0000 </r>
       <r>    -6.4807     0.0000     8.0000 </r>
       <r>    -6.4098     0.0000     8.0000 </r>
       <r>    -6.3389     0.0000     8.0000 </r>
       <r>    -6.2681     0.0000     8.0000 </r>
       <r>    -6.1972     0.0000     8.0000 </r>
       <r>    -6.1263     0.0000     8.0000 </r>
       <r>    -6.0555     0.0000     8.0000 </r>
       <r>    -5.9846     0.0000     8.0000 </r>
       <r>    -5.9137     0.0000     8.0000 </r>
       <r>    -5.8429     0.0000     8.0000 </r>
       <r>    -5.7720     0.0000     8.0000 </r>
       <r>    -5.7011     0.0000     8.0000 </r>
       <r>    -5.6303     0.0000     8.0000 </r>
       <r>    -5.5594     0.0000     8.0000 </r>
       <r>    -5.4885     0.0000     8.0000 </r>
       <r>    -5.4177     0.0000     8.0000 </r>
       <r>    -5.3468     0.0000     8.0000 </r>
       <r>    -5.2759     0.0000     8.0000 </r>
       <r>    -5.2051     0.0000     8.0000 </r>
       <r>    -5.1342     0.0000     8.0000 </r>
       <r>    -5.0633     0.0000     8.0000 </r>
       <r>    -4.9925     0.0000     8.0000 </r>
       <r>    -4.9216     0.0000     8.0000 </r>
       <r>    -4.8507     0.0000     8.0000 </r>
       <r>    -4.7799     0.0000     8.0000 </r>
       <r>    -4.7090     0.0000     8.0000 </r>
       <r>    -4.6381     0.0000     8.0000 </r>
       <r>    -4.5673     0.0000     8.0000 </r>
       <r>    -4.4964     0.0000     8.0000 </r>
       <r>    -4.4255     0.0000     8.0000 </r>
       <r>    -4.3547     0.0000     8.0000 </r>
       <r>    -4.2838     0.0000     8.0000 </r>
       <r>    -4.2129     0.0000     8.0000 </r>
       <r>    -4.1421     0.0000     8.0000 </r>
       <r>    -4.0712     0.0000     8.0000 </r>
       <r>    -4.0003     0.0000     8.0000 </r>
       <r>    -3.9295     0.0000     8.0000 </r>
       <r>    -3.8586     0.0000     8.0000 </r>
       <r>    -3.7877     0.0000     8.0000 </r>
       <r>    -3.7169     0.0000     8.0000 </r>
       <r>    -3.6460     0.0000     8.0000 </r>
       <r>    -3.5751     0.0000     8.0000 </r>
       <r>    -3.5043     0.0000     8.0000 </r>
       <r>    -3.4334     0.0000     8.0000 </r>
       <r>    -3.3625     0.0000     8.0000 </r>
       <r>    -3.2917     0.0000     8.0000 </r>
       <r>    -3.2208     0.0000     8.0000 </r>
       <r>    -3.1499     0.0000     8.0000 </r>
       <r>    -3.0791     0.0000     8.0000 </r>
       <r>    -3.0082     0.0000     8.0000 </r>
       <r>    -2.9373     0.0000     8.0000 </r>
       <r>    -2.8665     0.0000     8.0000 </r>
       <r>    -2.7956     0.0000     8.0000 </r>
       <r>    -2.7247     0.0000     8.0000 </r>
       <r>    -2.6539     0.0000     8.0000 </r>
       <r>    -2.5830     0.2158     8.0023 </r>
       <r>    -2.5121     1.0976     8.0487 </r>
       <r>    -2.4413     2.1096     8.1612 </r>
       <r>    -2.3704     3.3162     8.3523 </r>
       <r>    -2.2995     5.2002     8.6424 </r>
       <r>    -2.2287     5.5588     9.0212 </r>
       <r>    -2.1578     6.0042     9.4314 </r>
       <r>    -2.0869     7.4749    10.0051 </r>
       <r>    -2.0161     6.3620    10.4953 </r>
       <r>    -1.9452     7.9226    10.9285 </r>
       <r>    -1.8743     7.8568    11.6545 </r>
       <r>    -1.8035     1.8195    11.9777 </r>
       <r>    -1.7326     8.9568    12.5875 </r>
       <r>    -1.6617     4.4700    13.0551 </r>
       <r>    -1.5909     2.6709    13.2697 </r>
       <r>    -1.5200     2.4434    13.4510 </r>
       <r>    -1.4491     2.2161    13.6161 </r>
       <r>    -1.3782     1.9892    13.7651 </r>
       <r>    -1.3074     1.7624    13.8980 </r>
       <r>    -1.2365     1.6707    14.0179 </r>
       <r>    -1.1656     1.6782    14.1365 </r>
       <r>    -1.0948     1.6857    14.2557 </r>
       <r>    -1.0239     1.6933    14.3755 </r>
       <r>    -0.9530     1.8067    14.4963 </r>
       <r>    -0.8822     5.4490    14.7351 </r>
       <r>    -0.8113    10.9450    15.3066 </r>
       <r>    -0.7404    10.4794    16.1965 </r>
       <r>    -0.6696     9.8412    16.9002 </r>
       <r>    -0.5987     8.0379    17.5598 </r>
       <r>    -0.5278     4.8319    18.0160 </r>
       <r>    -0.4570     2.6230    18.2601 </r>
       <r>    -0.3861     2.3624    18.4361 </r>
       <r>    -0.3152     2.1934    18.5973 </r>
       <r>    -0.2444     2.0334    18.7471 </r>
       <r>    -0.1735     1.8736    18.8855 </r>
       <r>    -0.1026    15.9080    19.1543 </r>
       <r>    -0.0318    20.9328    20.5641 </r>
       <r>     0.0391     7.4645    21.3255 </r>
       <r>     0.1100     6.2867    21.7762 </r>
       <r>     0.1808     5.7701    22.2583 </r>
       <r>     0.2517     3.7761    22.5753 </r>
       <r>     0.3226     3.5901    22.8363 </r>
       <r>     0.3934     3.4040    23.0841 </r>
       <r>     0.4643     3.4958    23.3199 </r>
       <r>     0.5352     5.1876    23.6257 </r>
       <r>     0.6060     5.0355    23.9908 </r>
       <r>     0.6769     4.1642    24.3350 </r>
       <r>     0.7478     2.6441    24.5762 </r>
       <r>     0.8186     1.7910    24.7097 </r>
       <r>     0.8895     1.7481    24.8351 </r>
       <r>     0.9604     1.7118    24.9576 </r>
       <r>     1.0312     1.6823    25.0778 </r>
       <r>     1.1021     4.6627    25.2524 </r>
       <r>     1.1730    10.9068    25.7800 </r>
       <r>     1.2438    17.8992    26.8617 </r>
       <r>     1.3147    13.3776    28.0104 </r>
       <r>     1.3856     4.9063    28.6362 </r>
       <r>     1.4564     3.1383    28.9009 </r>
       <r>     1.5273     2.9509    29.1143 </r>
       <r>     1.5982     2.8721    29.3206 </r>
       <r>     1.6690     3.0256    29.5263 </r>
       <r>     1.7399     3.6659    29.7561 </r>
       <r>     1.8108     6.5998    30.1014 </r>
       <r>     1.8816     8.5508    30.6615 </r>
       <r>     1.9525     4.8912    31.1377 </r>
       <r>     2.0234     4.3971    31.4716 </r>
       <r>     2.0942     3.0865    31.7418 </r>
       <r>     2.1651     1.6047    31.9040 </r>
       <r>     2.2360     2.6165    32.0289 </r>
       <r>     2.3068     7.1965    32.3327 </r>
       <r>     2.3777     7.8176    32.9165 </r>
       <r>     2.4486     7.1931    33.4454 </r>
       <r>     2.5194     6.6480    33.9369 </r>
       <r>     2.5903     6.1373    34.3881 </r>
       <r>     2.6612     4.2998    34.7692 </r>
       <r>     2.7320     3.7760    35.0554 </r>
       <r>     2.8029     3.2516    35.3044 </r>
       <r>     2.8738     2.9766    35.5205 </r>
       <r>     2.9446     2.4066    35.7155 </r>
       <r>     3.0155     0.9681    35.8836 </r>
       <r>     3.0864     0.8239    35.9485 </r>
       <r>     3.1572     0.3088    35.9855 </r>
       <r>     3.2281     0.0764    35.9982 </r>
       <r>     3.2990     0.0000    36.0000 </r>
       <r>     3.3698     0.0000    36.0000 </r>
       <r>     3.4407     0.0000    36.0000 </r>
       <r>     3.5116     0.0000    36.0000 </r>
       <r>     3.5824     0.0000    36.0000 </r>
       <r>     3.6533     0.0000    36.0000 </r>
       <r>     3.7242     0.0000    36.0000 </r>
       <r>     3.7950     0.0000    36.0000 </r>
       <r>     3.8659     0.0000    36.0000 </r>
       <r>     3.9368     0.0000    36.0000 </r>
       <r>     4.0076     0.0000    36.0000 </r>
       <r>     4.0785     0.0000    36.0000 </r>
       <r>     4.1494     0.0000    36.0000 </r>
       <r>     4.2202     0.0000    36.0000 </r>
       <r>     4.2911     0.0000    36.0000 </r>
       <r>     4.3620     0.0000    36.0000 </r>
       <r>     4.4328     0.0000    36.0000 </r>
       <r>     4.5037     0.0000    36.0000 </r>
       <r>     4.5746     0.0000    36.0000 </r>
       <r>     4.6454     0.0000    36.0000 </r>
       <r>     4.7163     0.0000    36.0000 </r>
       <r>     4.7872     0.0000    36.0000 </r>
       <r>     4.8580     0.0000    36.0000 </r>
       <r>     4.9289     7.9388    36.0379 </r>
       <r>     4.9998     1.6966    36.1615 </r>
       <r>     5.0706     5.1849    36.3994 </r>
       <r>     5.1415     8.8143    36.8936 </r>
       <r>     5.2124    12.9599    37.6682 </r>
       <r>     5.2832    26.2514    38.8085 </r>
       <r>     5.3541     2.2432    39.4613 </r>
       <r>     5.4250     1.6315    39.5955 </r>
       <r>     5.4958     8.5409    39.9024 </r>
       <r>     5.5667    10.5778    40.7264 </r>
       <r>     5.6376     8.3552    41.3809 </r>
       <r>     5.7084     7.3839    41.9284 </r>
       <r>     5.7793     9.8008    42.4379 </r>
       <r>     5.8502     4.8003    42.9993 </r>
       <r>     5.9210     3.1033    43.2510 </r>
       <r>     5.9919     2.4600    43.4465 </r>
       <r>     6.0628     1.9873    43.6036 </r>
       <r>     6.1337     1.7471    43.7349 </r>
       <r>     6.2045     1.7112    43.8667 </r>
       <r>     6.2754     0.9814    43.9644 </r>
       <r>     6.3463     0.0000    44.0000 </r>
       <r>     6.4171     0.0000    44.0000 </r>
       <r>     6.4880     0.0000    44.0000 </r>
       <r>     6.5589     0.0000    44.0000 </r>
       <r>     6.6297     0.0000    44.0000 </r>
       <r>     6.7006     0.0000    44.0000 </r>
       <r>     6.7715     0.0000    44.0000 </r>
       <r>     6.8423     0.0000    44.0000 </r>
       <r>     6.9132     0.0000    44.0000 </r>
       <r>     6.9841     0.0000    44.0000 </r>
       <r>     7.0549     0.0000    44.0000 </r>
       <r>     7.1258     0.0000    44.0000 </r>
       <r>     7.1967     0.0000    44.0000 </r>
       <r>     7.2675     0.0000    44.0000 </r>
       <r>     7.3384     0.0000    44.0000 </r>
       <r>     7.4093     0.0000    44.0000 </r>
       <r>     7.4801     0.0000    44.0000 </r>
       <r>     7.5510     0.0000    44.0000 </r>
       <r>     7.6219     0.0000    44.0000 </r>
       <r>     7.6927     0.0000    44.0000 </r>
       <r>     7.7636     0.0000    44.0000 </r>
       <r>     7.8345     0.0000    44.0000 </r>
       <r>     7.9053     0.0000    44.0000 </r>
       <r>     7.9762     0.0000    44.0000 </r>
       <r>     8.0471     0.0000    44.0000 </r>
       <r>     8.1179     0.0000    44.0000 </r>
       <r>     8.1888     0.0000    44.0000 </r>
       <r>     8.2597     0.0000    44.0000 </r>
       <r>     8.3305     0.0000    44.0000 </r>
      </set>
     </set>
    </array>
   </total>
  </dos>
 </calculation>
 <structure name="finalpos" >
  <crystal>
   <varray name="basis" >
    <v>       3.19031573       0.00000000       0.00000000 </v>
    <v>      -1.59515786       2.76289447       0.00000000 </v>
    <v>       0.00000000       0.00000000      14.87900430 </v>
   </varray>
   <i name="volume">    131.15106795 </i>
   <varray name="rec_basis" >
    <v>       0.31344860       0.18096963       0.00000000 </v>
    <v>       0.00000000       0.36193927       0.00000000 </v>
    <v>       0.00000000       0.00000000       0.06720880 </v>
   </varray>
  </crystal>
  <varray name="positions" >
   <v>       0.33333300       0.66666700       0.25000000 </v>
   <v>       0.66666700       0.33333300       0.75000000 </v>
   <v>       0.33333300       0.66666700       0.85517400 </v>
   <v>       0.66666700       0.33333300       0.14482600 </v>
   <v>       0.66666600       0.33333300       0.35517400 </v>
   <v>       0.33333400       0.66666700       0.64482600 </v>
  </varray>
 </structure>
</modeling>
