unknown system                          
   1.00000000000000     
     3.190316    0.000000    0.000000
    -1.595158    2.762894    0.000000
     0.000000    0.000000   14.879004
   Mo   S 
     2     4
Direct
  0.333333  0.666667  0.250000
  0.666667  0.333333  0.750000
  0.333333  0.666667  0.855174
  0.666667  0.333333  0.144826
  0.666666  0.333333  0.355174
  0.333334  0.666667  0.644826
 
   36   36  160
 0.39557155731E+00 0.39864228721E+00 0.40786222030E+00 0.42325430533E+00 0.44479990300E+00
 0.47236711051E+00 0.50563350231E+00 0.54402138758E+00 0.58666212447E+00 0.63239890081E+00
 0.67982686897E+00 0.72736057630E+00 0.77331436307E+00 0.81598207898E+00 0.85370839620E+00
 0.88495457995E+00 0.90837068291E+00 0.92288383471E+00 0.92779572817E+00 0.92286290817E+00
 0.90832863385E+00 0.88489207881E+00 0.85362821713E+00 0.81588945339E+00 0.77321604696E+00
 0.72726315234E+00 0.67973527475E+00 0.63231590864E+00 0.58658880521E+00 0.54395802126E+00
 0.50558028716E+00 0.47232432189E+00 0.44476759131E+00 0.42323192084E+00 0.40784856595E+00
 0.39863594230E+00 0.39863632823E+00 0.39863912912E+00 0.40478494626E+00 0.41709444805E+00
 0.43557399309E+00 0.46015665025E+00 0.49062715022E+00 0.52654702105E+00 0.56720101045E+00
 0.61157957061E+00 0.65840003514E+00 0.70616068756E+00 0.75321646090E+00 0.79786012429E+00
 0.83839540560E+00 0.87320231511E+00 0.90080772701E+00 0.91997203356E+00 0.92978805028E+00
 0.92977343593E+00 0.91992961612E+00 0.90074323358E+00 0.87312585591E+00 0.83831600287E+00
 0.79778011940E+00 0.75313303915E+00 0.70607213765E+00 0.65830919645E+00 0.61149261900E+00
 0.56712469238E+00 0.52648581234E+00 0.49058104760E+00 0.46012213412E+00 0.43554806367E+00
 0.41707672155E+00 0.40477543204E+00 0.40784971030E+00 0.40477881653E+00 0.40785600106E+00
 0.41709203413E+00 0.43249869826E+00 0.45404637688E+00 0.48160185742E+00 0.51485452300E+00
 0.55324986319E+00 0.59594958423E+00 0.64182632719E+00 0.68949359602E+00 0.73736840557E+00
 0.78375378145E+00 0.82691900416E+00 0.86516704513E+00 0.89690205885E+00 0.92071471804E+00
 0.93548501488E+00 0.94048521209E+00 0.93546087543E+00 0.92066618756E+00 0.89683464690E+00
 0.86509103714E+00 0.82684048982E+00 0.78367149568E+00 0.73728061825E+00 0.68940348881E+00
 0.64173957323E+00 0.59587108348E+00 0.55318375393E+00 0.51480299500E+00 0.48156274055E+00
 0.45401544983E+00 0.43247489341E+00 0.41707710738E+00 0.42323324242E+00 0.41708141893E+00
 0.41708395937E+00 0.42324390557E+00 0.43556941799E+00 0.45404585791E+00 0.47859186588E+00
 0.50899819419E+00 0.54485875141E+00 0.58551463821E+00 0.63002408383E+00 0.67716095754E+00
 0.72544759504E+00 0.77322438503E+00 0.81873766926E+00 0.86021959018E+00 0.89595815433E+00
 0.92437921793E+00 0.94415100721E+00 0.95429662616E+00 0.95429261141E+00 0.94413363226E+00
 0.92434026002E+00 0.89589687868E+00 0.86014074437E+00 0.81864569236E+00 0.77312587494E+00
 0.72535367410E+00 0.67707986834E+00 0.62995485988E+00 0.58545300903E+00 0.54480472437E+00
 0.50895318755E+00 0.47855404943E+00 0.45401412815E+00 0.43554712782E+00 0.44476759132E+00
 0.43555390939E+00 0.43248335979E+00 0.43555840822E+00 0.44478379268E+00 0.46014861946E+00
 0.48159935287E+00 0.50899818505E+00 0.54206166453E+00 0.58029710746E+00 0.62295676982E+00
 0.66901132695E+00 0.71714506566E+00 0.76579048540E+00 0.81320647179E+00 0.85757167369E+00
 0.89706764607E+00 0.92996259450E+00 0.95471714232E+00 0.97010597046E+00 0.97533087364E+00
 0.97010721992E+00 0.95470588287E+00 0.92992715352E+00 0.89700603121E+00 0.85748673250E+00
 0.81310605755E+00 0.76569149009E+00 0.71706399923E+00 0.66894877803E+00 0.62290083127E+00
 0.58024162863E+00 0.54201076866E+00 0.50895468428E+00 0.48156159619E+00 0.46011892987E+00
 0.47232142434E+00 0.46012812896E+00 0.45402703943E+00 0.45402766777E+00 0.46013627007E+00
 0.47234417360E+00 0.49061094307E+00 0.51484434279E+00 0.54485668154E+00 0.58030036308E+00
 0.62061055314E+00 0.66496465297E+00 0.71225032462E+00 0.76105692345E+00 0.80971970454E+00
 0.85640960094E+00 0.89922985569E+00 0.93630767913E+00 0.96590378246E+00 0.98654530423E+00
 0.99715523977E+00 0.99715634824E+00 0.98654052748E+00 0.96588103645E+00 0.93626538120E+00
 0.89917076062E+00 0.85633342322E+00 0.80963283080E+00 0.76097646326E+00 0.71218594711E+00
 0.66490728102E+00 0.62054986894E+00 0.58024154940E+00 0.54480894372E+00 0.51480589263E+00
 0.49057776408E+00 0.50557450479E+00 0.49058620746E+00 0.48157826195E+00 0.47857210631E+00
 0.48158067977E+00 0.49060222687E+00 0.50560388929E+00 0.52651797137E+00 0.55322618687E+00
 0.58550588501E+00 0.62296125381E+00 0.66497022691E+00 0.71063964796E+00 0.75876380656E+00
 0.80782273146E+00 0.85604647999E+00 0.90151477591E+00 0.94225571159E+00 0.97635631806E+00
 0.10021054882E+01 0.10181451647E+01 0.10235941962E+01 0.10181391047E+01 0.10020832685E+01
 0.97631898006E+00 0.94221452785E+00 0.90146957425E+00 0.85598732651E+00 0.80775260328E+00
 0.75869688285E+00 0.71057781800E+00 0.66490438333E+00 0.62289504892E+00 0.58545433075E+00
 0.55319068062E+00 0.52648619812E+00 0.54395245601E+00 0.52649021088E+00 0.51482121921E+00
 0.50897703207E+00 0.50897682621E+00 0.51483106790E+00 0.52651927919E+00 0.54398706936E+00
 0.56715843521E+00 0.59591032687E+00 0.63000192782E+00 0.66900491189E+00 0.71224944760E+00
 0.75876401255E+00 0.80722927730E+00 0.85600097224E+00 0.90320063202E+00 0.94681998027E+00
 0.98482625705E+00 0.10153035418E+01 0.10366251891E+01 0.10476048994E+01 0.10476052578E+01
 0.10366157641E+01 0.10152747396E+01 0.98479074588E+00 0.94678940279E+00 0.90316287009E+00
 0.85594321382E+00 0.80716241567E+00 0.75870244795E+00 0.71218861449E+00 0.66894039446E+00
 0.62994797313E+00 0.59587664862E+00 0.56713064325E+00 0.58658880511E+00 0.56712983447E+00
 0.55320122585E+00 0.54483254381E+00 0.54203762679E+00 0.54483482687E+00 0.55322506191E+00
 0.56717237877E+00 0.58662542983E+00 0.61152966578E+00 0.64177619798E+00 0.67711970763E+00
 0.71711229931E+00 0.76103525861E+00 0.80781778591E+00 0.85600552761E+00 0.90382515111E+00
 0.94929579799E+00 0.99033325715E+00 0.10248759138E+01 0.10510644027E+01 0.10674248882E+01
 0.10729994026E+01 0.10674380291E+01 0.10510640414E+01 0.10248548873E+01 0.99030859884E+00
 0.94926804438E+00 0.90377612372E+00 0.85593852796E+00 0.80775838571E+00 0.76098961190E+00
 0.71706399913E+00 0.67706829565E+00 0.64173842894E+00 0.61150248415E+00 0.63232489034E+00
 0.61150043040E+00 0.59588378171E+00 0.58547931508E+00 0.58027333826E+00 0.58027021130E+00
 0.58548830899E+00 0.59592313569E+00 0.61155021885E+00 0.63236180776E+00 0.65835291024E+00
 0.68944157257E+00 0.72538852670E+00 0.76572902812E+00 0.80967682520E+00 0.85603527182E+00
 0.90320703614E+00 0.94930062015E+00 0.99224718343E+00 0.10299117729E+01 0.10602585376E+01
 0.10815591231E+01 0.10925582029E+01 0.10925748447E+01 0.10815847475E+01 0.10602609674E+01
 0.10298967965E+01 0.99222928084E+00 0.94926677500E+00 0.90314832325E+00 0.85597834492E+00
 0.80964471023E+00 0.76570329011E+00 0.72534601399E+00 0.68939450716E+00 0.65831779237E+00
 0.67975019891E+00 0.65831992915E+00 0.64174563862E+00 0.62997331747E+00 0.62293449721E+00
 0.62058453450E+00 0.62292988165E+00 0.62999547043E+00 0.64179594871E+00 0.65836713885E+00
 0.67978844779E+00 0.70612289580E+00 0.73732228779E+00 0.77315687063E+00 0.81313010004E+00
 0.85635592349E+00 0.90149365746E+00 0.94681482820E+00 0.99033305827E+00 0.10299169590E+01
 0.10634280016E+01 0.10889305536E+01 0.11049006702E+01 0.11103536366E+01 0.11049248582E+01
 0.10889416718E+01 0.10634161338E+01 0.10299057782E+01 0.99032352294E+00 0.94678383751E+00
 0.90144886768E+00 0.85633052568E+00 0.81312098173E+00 0.77312719648E+00 0.73726683838E+00
 0.70607252357E+00 0.72727489775E+00 0.70608304087E+00 0.68940502099E+00 0.67708845674E+00
 0.66897981469E+00 0.66494937116E+00 0.66494391400E+00 0.66898641357E+00 0.67712973282E+00
 0.68945700131E+00 0.70612097141E+00 0.72731788468E+00 0.75318535780E+00 0.78371260810E+00
 0.81867099577E+00 0.85749826794E+00 0.89917533828E+00 0.94221976660E+00 0.98480166320E+00
 0.10248716900E+01 0.10602784054E+01 0.10889515051E+01 0.11091372417E+01 0.11195738809E+01
 0.11195822143E+01 0.11091405100E+01 0.10889299263E+01 0.10602582038E+01 0.10248768838E+01
 0.98480805627E+00 0.94220278225E+00 0.89915611758E+00 0.85749565960E+00 0.81865611601E+00
 0.78365975012E+00 0.75312167961E+00 0.77321604708E+00 0.75313974042E+00 0.73728275014E+00
 0.72535750628E+00 0.71708964353E+00 0.71223245888E+00 0.71062462098E+00 0.71223342187E+00
 0.71712252058E+00 0.72541669337E+00 0.73732903967E+00 0.75317105380E+00 0.77326526489E+00
 0.79782469884E+00 0.82687350595E+00 0.86015764403E+00 0.89700767712E+00 0.93625765498E+00
 0.97630958656E+00 0.10152697192E+01 0.10510657692E+01 0.10815917458E+01 0.11049331145E+01
 0.11195874726E+01 0.11245901298E+01 0.11195879991E+01 0.11049099338E+01 0.10815582355E+01
 0.10510640416E+01 0.10152978351E+01 0.97632476225E+00 0.93625074845E+00 0.89700603132E+00
 0.86015695304E+00 0.82683934529E+00 0.79776220317E+00 0.81587700712E+00 0.79778012732E+00
 0.78367889205E+00 0.77313381309E+00 0.76571262081E+00 0.76102041491E+00 0.75874818437E+00
 0.75874775518E+00 0.76104174528E+00 0.76577412284E+00 0.77320165825E+00 0.78372018400E+00
 0.79781534021E+00 0.81592947903E+00 0.83834625594E+00 0.86510889397E+00 0.89590033291E+00
 0.92991719007E+00 0.96586199018E+00 0.10020612276E+01 0.10365971756E+01 0.10674289555E+01
 0.10925790654E+01 0.11103693598E+01 0.11195925566E+01 0.11195980728E+01 0.11103660828E+01
 0.10925534164E+01 0.10674153317E+01 0.10366226456E+01 0.10020957148E+01 0.96587148755E+00
 0.92991752557E+00 0.89591064687E+00 0.86510348344E+00 0.83830317046E+00 0.85361128758E+00
 0.83831101975E+00 0.82685374437E+00 0.81866289993E+00 0.81312515652E+00 0.80966704372E+00
 0.80780072728E+00 0.80720888807E+00 0.80780560795E+00 0.80970966268E+00 0.81320112354E+00
 0.81872931914E+00 0.82689931874E+00 0.83836040139E+00 0.85365990061E+00 0.87313960536E+00
 0.89683237230E+00 0.92432458934E+00 0.95468075022E+00 0.98651148397E+00 0.10181125541E+01
 0.10475873347E+01 0.10729945334E+01 0.10925666189E+01 0.11049161852E+01 0.11091489874E+01
 0.11049325239E+01 0.10925671844E+01 0.10729824730E+01 0.10475996928E+01 0.10181502519E+01
 0.98653762967E+00 0.95468895334E+00 0.92434158180E+00 0.89685272072E+00 0.87312624155E+00
 0.88488091427E+00 0.87312039386E+00 0.86510592252E+00 0.86016415492E+00 0.85750474384E+00
 0.85635509793E+00 0.85602544539E+00 0.85599006463E+00 0.85598558226E+00 0.85603663721E+00
 0.85640837966E+00 0.85757759665E+00 0.86022589659E+00 0.86516429966E+00 0.87318331986E+00
 0.88491769636E+00 0.90074249287E+00 0.92064369840E+00 0.94409736040E+00 0.97006722994E+00
 0.99712271055E+00 0.10235737084E+01 0.10475984990E+01 0.10674276732E+01 0.10815630510E+01
 0.10889285955E+01 0.10889417181E+01 0.10815792690E+01 0.10674239748E+01 0.10475993003E+01
 0.10236053605E+01 0.99716461475E+00 0.97009323707E+00 0.94412114633E+00 0.92067735191E+00
 0.90075478358E+00 0.90832863370E+00 0.90074096778E+00 0.89684495613E+00 0.89591794705E+00
 0.89702220375E+00 0.89918371789E+00 0.90149779188E+00 0.90320998576E+00 0.90382805278E+00
 0.90320342827E+00 0.90151885736E+00 0.89923835119E+00 0.89708219666E+00 0.89597552130E+00
 0.89691434049E+00 0.90080616228E+00 0.90834975660E+00 0.91991849413E+00 0.93542294934E+00
 0.95424027800E+00 0.97527995472E+00 0.99711931438E+00 0.10181294837E+01 0.10366241825E+01
 0.10510657689E+01 0.10602520993E+01 0.10634130775E+01 0.10602641166E+01 0.10510644027E+01
 0.10366161937E+01 0.10181509471E+01 0.99717269795E+00 0.97533087348E+00 0.95427672912E+00
 0.93545973115E+00 0.91994379081E+00 0.92287254694E+00 0.91993118018E+00 0.92066792786E+00
 0.92435187955E+00 0.92994157816E+00 0.93627847884E+00 0.94224045033E+00 0.94683871454E+00
 0.94932765987E+00 0.94932284754E+00 0.94684400092E+00 0.94227673971E+00 0.93632884461E+00
 0.92998701568E+00 0.92440626326E+00 0.92073876829E+00 0.91998478825E+00 0.92287824936E+00
 0.92975552172E+00 0.94043912732E+00 0.95423535614E+00 0.97004642687E+00 0.98650184539E+00
 0.10020833130E+01 0.10152968882E+01 0.10248737965E+01 0.10299073202E+01 0.10299124299E+01
 0.10248753015E+01 0.10152883378E+01 0.10020958495E+01 0.98655784072E+00 0.97011842756E+00
 0.95428830895E+00 0.94047557334E+00 0.92978268891E+00 0.92780901463E+00 0.92977715595E+00
 0.93545471715E+00 0.94413459834E+00 0.95472057665E+00 0.96590348545E+00 0.97635227935E+00
 0.98484444758E+00 0.99037498325E+00 0.99228863748E+00 0.99037541695E+00 0.98486938296E+00
 0.97639931490E+00 0.96594548376E+00 0.95475709016E+00 0.94418829194E+00 0.93551673029E+00
 0.92980952434E+00 0.92780226687E+00 0.92976516052E+00 0.93543623573E+00 0.94408619591E+00
 0.95465053421E+00 0.96584954393E+00 0.97632287321E+00 0.98481340864E+00 0.99033469595E+00
 0.99225616512E+00 0.99034654355E+00 0.98482069179E+00 0.97633724917E+00 0.96590088487E+00
 0.95473042880E+00 0.94415232876E+00 0.93547287268E+00 0.92978843616E+00 0.92289347341E+00
 0.92979167991E+00 0.94047591339E+00 0.95428702090E+00 0.97012391772E+00 0.98657652984E+00
 0.10021292688E+01 0.10153325709E+01 0.10249236444E+01 0.10299600394E+01 0.10299549620E+01
 0.10249280754E+01 0.10153665314E+01 0.10021736251E+01 0.98661051108E+00 0.97016281306E+00
 0.95434334301E+00 0.94052182657E+00 0.92979988560E+00 0.92287824951E+00 0.91994269353E+00
 0.92066450132E+00 0.92431495036E+00 0.92989510481E+00 0.93624976343E+00 0.94221765994E+00
 0.94680518947E+00 0.94929996320E+00 0.94931568781E+00 0.94683518400E+00 0.94224607268E+00
 0.93629514271E+00 0.92996941488E+00 0.92438753492E+00 0.92070507916E+00 0.91996278064E+00
 0.90837068297E+00 0.91997351590E+00 0.93547879556E+00 0.95429096967E+00 0.97534874092E+00
 0.99720222967E+00 0.10181962288E+01 0.10366752060E+01 0.10511300002E+01 0.10603281924E+01
 0.10634717088E+01 0.10603084353E+01 0.10511286303E+01 0.10367030376E+01 0.10182287019E+01
 0.99723483251E+00 0.97539980892E+00 0.95434826472E+00 0.93550344368E+00 0.91996058899E+00
 0.90834975681E+00 0.90076821781E+00 0.89684930170E+00 0.89589821869E+00 0.89700767707E+00
 0.89917815327E+00 0.90147873315E+00 0.90318349396E+00 0.90382515128E+00 0.90322075768E+00
 0.90152055813E+00 0.89921819275E+00 0.89706764612E+00 0.89597139315E+00 0.89690091435E+00
 0.90079278060E+00 0.88494341580E+00 0.90080561439E+00 0.92071621605E+00 0.94415176591E+00
 0.97012270412E+00 0.99720129740E+00 0.10236556344E+01 0.10476644258E+01 0.10674990896E+01
 0.10816557286E+01 0.10890119768E+01 0.10889908759E+01 0.10816228238E+01 0.10674948493E+01
 0.10476819070E+01 0.10236759902E+01 0.99723822885E+00 0.97018361615E+00 0.94419945606E+00
 0.92071796506E+00 0.90078043750E+00 0.88491769653E+00 0.87315076971E+00 0.86511017613E+00
 0.86016401019E+00 0.85752117766E+00 0.85636708756E+00 0.85601512565E+00 0.85598411238E+00
 0.85600657154E+00 0.85605764421E+00 0.85640133420E+00 0.85756332786E+00 0.86023207620E+00
 0.86517820930E+00 0.87319076485E+00 0.85369146663E+00 0.87319707802E+00 0.89691203664E+00
 0.92439052099E+00 0.95473200883E+00 0.98658166479E+00 0.10182023020E+01 0.10476639987E+01
 0.10730581537E+01 0.10926482476E+01 0.11050108427E+01 0.11092189164E+01 0.11049781052E+01
 0.10926271141E+01 0.10730629583E+01 0.10476707427E+01 0.10182117725E+01 0.98662015006E+00
 0.95478730619E+00 0.92441590184E+00 0.89689741086E+00 0.87317215561E+00 0.85365990063E+00
 0.83833380946E+00 0.82685657657E+00 0.81868274144E+00 0.81316195375E+00 0.80968580666E+00
 0.80780085628E+00 0.80722371227E+00 0.80783387861E+00 0.80971680673E+00 0.81318954224E+00
 0.81873899105E+00 0.82693707800E+00 0.83839579125E+00 0.81596963225E+00 0.83839042043E+00
 0.86518183292E+00 0.89597892914E+00 0.92997720789E+00 0.96592649200E+00 0.10021515380E+01
 0.10366845591E+01 0.10674860604E+01 0.10926315031E+01 0.11104462747E+01 0.11196740235E+01
 0.11196605190E+01 0.11104306281E+01 0.10926395605E+01 0.10674961313E+01 0.10366760304E+01
 0.10021515400E+01 0.96595793045E+00 0.93000910093E+00 0.89597763527E+00 0.86516301750E+00
 0.83837284785E+00 0.81592947886E+00 0.79779472186E+00 0.78368841636E+00 0.77316931733E+00
 0.76575045626E+00 0.76103306300E+00 0.75875713120E+00 0.75877625309E+00 0.76106647213E+00
 0.76577522036E+00 0.77321061693E+00 0.78376622802E+00 0.79787295647E+00 0.77331436289E+00
 0.79785999165E+00 0.82693251192E+00 0.86024286826E+00 0.89708370664E+00 0.93632087900E+00
 0.97638974957E+00 0.10153614676E+01 0.10511303883E+01 0.10816298633E+01 0.11049863957E+01
 0.11196657998E+01 0.11246645715E+01 0.11196554351E+01 0.11049950349E+01 0.10816515185E+01
 0.10511286300E+01 0.10153393620E+01 0.97638602856E+00 0.93633673641E+00 0.89708219663E+00
 0.86021953049E+00 0.82691624841E+00 0.79784531705E+00 0.77326526459E+00 0.75315608175E+00
 0.73730736374E+00 0.72539707557E+00 0.71711229922E+00 0.71223748223E+00 0.71064543045E+00
 0.71227075274E+00 0.71714506547E+00 0.72542874283E+00 0.73736726134E+00 0.75323360554E+00
 0.72737232185E+00 0.75322323883E+00 0.78376148583E+00 0.81875491316E+00 0.85758924043E+00
 0.89924285116E+00 0.94228185821E+00 0.98488013126E+00 0.10249445737E+01 0.10603255455E+01
 0.10890006078E+01 0.11092157926E+01 0.11196600148E+01 0.11196498315E+01 0.11092071711E+01
 0.10890137859E+01 0.10603347413E+01 0.10249259685E+01 0.98485763741E+00 0.94227884655E+00
 0.89923553611E+00 0.85755468678E+00 0.81871757381E+00 0.78374437622E+00 0.75320032965E+00
 0.72731788435E+00 0.70611115021E+00 0.68944433646E+00 0.67712120209E+00 0.66898760115E+00
 0.66495848146E+00 0.66497929630E+00 0.66902589082E+00 0.67715053352E+00 0.68948185052E+00
 0.70617204737E+00 0.67984179336E+00 0.70617190585E+00 0.73737060686E+00 0.77323243271E+00
 0.81322521549E+00 0.85643123001E+00 0.90154320499E+00 0.94686935080E+00 0.99039963694E+00
 0.10299749692E+01 0.10634834512E+01 0.10890123534E+01 0.11050013200E+01 0.11104338280E+01
 0.11049789888E+01 0.10890008128E+01 0.10634866333E+01 0.10299646007E+01 0.99037377906E+00
 0.94685363977E+00 0.90153378168E+00 0.85639721516E+00 0.81316926963E+00 0.77318921205E+00
 0.73734396424E+00 0.70613271683E+00 0.67978844757E+00 0.65836189198E+00 0.64179112231E+00
 0.62999636254E+00 0.62294054703E+00 0.62060765560E+00 0.62297169423E+00 0.63002540537E+00
 0.64181254710E+00 0.65840042107E+00 0.63240788263E+00 0.65841093859E+00 0.68949509269E+00
 0.72545156000E+00 0.76581169827E+00 0.80975368722E+00 0.85608463040E+00 0.90324772602E+00
 0.94935562393E+00 0.99230667882E+00 0.10299659874E+01 0.10603283094E+01 0.10816563758E+01
 0.10926529313E+01 0.10926392655E+01 0.10816355824E+01 0.10603226138E+01 0.10299593825E+01
 0.99227965564E+00 0.94932350461E+00 0.90322697079E+00 0.85605678325E+00 0.80970068061E+00
 0.76575269451E+00 0.72540814494E+00 0.68945423776E+00 0.65835815704E+00 0.63236180772E+00
 0.61154889872E+00 0.59592487372E+00 0.58549690302E+00 0.58028848359E+00 0.58030327097E+00
 0.58552229832E+00 0.59594060228E+00 0.61157097462E+00 0.58666212453E+00 0.61158723996E+00
 0.64183256974E+00 0.67716973196E+00 0.71717101749E+00 0.76110054603E+00 0.80787065113E+00
 0.85604789242E+00 0.90387730314E+00 0.94935689326E+00 0.99038471246E+00 0.10249225770E+01
 0.10511303886E+01 0.10675087583E+01 0.10730750832E+01 0.10675000026E+01 0.10511300002E+01
 0.10249242569E+01 0.99036169670E+00 0.94930776991E+00 0.90382805299E+00 0.85600699795E+00
 0.80782253740E+00 0.76104394037E+00 0.71712252053E+00 0.67712823855E+00 0.64178102445E+00
 0.61153098597E+00 0.58662542999E+00 0.56717425162E+00 0.55323196914E+00 0.54484932791E+00
 0.54206166459E+00 0.54486768098E+00 0.55324871875E+00 0.56719037335E+00 0.54401582242E+00
 0.56720602640E+00 0.59596263353E+00 0.63004276784E+00 0.66904243784E+00 0.71229665453E+00
 0.75881480333E+00 0.80727586190E+00 0.85605257844E+00 0.90326227316E+00 0.94687491593E+00
 0.98486282027E+00 0.10153383719E+01 0.10366776781E+01 0.10476695641E+01 0.10476700249E+01
 0.10366842013E+01 0.10153477749E+01 0.98485001277E+00 0.94682351038E+00 0.90318985997E+00
 0.85598446578E+00 0.80721445349E+00 0.75875463641E+00 0.71224538701E+00 0.66900372427E+00
 0.63000103557E+00 0.59590858860E+00 0.56715656253E+00 0.54398706963E+00 0.52652353666E+00
 0.51484167513E+00 0.50899543821E+00 0.50900508119E+00 0.51486008824E+00 0.52654106988E+00
 0.50562771968E+00 0.52655157860E+00 0.55326748641E+00 0.58554110102E+00 0.62299022945E+00
 0.66500675642E+00 0.71068622799E+00 0.75880923805E+00 0.80786486860E+00 0.85609361239E+00
 0.90156391203E+00 0.94229360366E+00 0.97638396683E+00 0.10021390915E+01 0.10181911551E+01
 0.10236444702E+01 0.10181904463E+01 0.10021389077E+01 0.97637134850E+00 0.94225008903E+00
 0.90149200919E+00 0.85601428106E+00 0.80778958041E+00 0.75873573802E+00 0.71061883853E+00
 0.66495565960E+00 0.62295058847E+00 0.58549729058E+00 0.55321927922E+00 0.52651371409E+00
 0.50560388955E+00 0.49060804538E+00 0.48159357026E+00 0.47859318760E+00 0.48160878438E+00
 0.49062753600E+00 0.47236421254E+00 0.49063248450E+00 0.51487255055E+00 0.54488657885E+00
 0.58032870328E+00 0.62064517867E+00 0.66500965424E+00 0.71229398703E+00 0.76108739691E+00
 0.80974180761E+00 0.85643412801E+00 0.89925749467E+00 0.93633551166E+00 0.96593604059E+00
 0.98658456253E+00 0.99719303087E+00 0.99718477130E+00 0.98656399335E+00 0.96590638343E+00
 0.93629101554E+00 0.89919538064E+00 0.85636336436E+00 0.80966994146E+00 0.76101086622E+00
 0.71221203067E+00 0.66493472801E+00 0.62058743250E+00 0.58028209090E+00 0.54484218003E+00
 0.51483373515E+00 0.49060512469E+00 0.47234417375E+00 0.46014290319E+00 0.45404163841E+00
 0.45404927474E+00 0.46015993389E+00 0.44479990298E+00 0.46016247521E+00 0.48161713588E+00
 0.50902195721E+00 0.54208867547E+00 0.58032878249E+00 0.62299601209E+00 0.66905082175E+00
 0.71717101741E+00 0.76579989769E+00 0.81321029112E+00 0.85758031364E+00 0.89708370681E+00
 0.92998683586E+00 0.95474893841E+00 0.97013668702E+00 0.97534874084E+00 0.97011146027E+00
 0.95470729020E+00 0.92993475814E+00 0.89702220388E+00 0.85751308962E+00 0.81314208607E+00
 0.76572788583E+00 0.71708964339E+00 0.66896525051E+00 0.62291957305E+00 0.58026717531E+00
 0.54203762687E+00 0.50897957271E+00 0.48158646214E+00 0.46014198637E+00 0.44478379265E+00
 0.43556527765E+00 0.43249755393E+00 0.43557642592E+00 0.42325562726E+00 0.43557955940E+00
 0.45405798011E+00 0.47860984675E+00 0.50902046039E+00 0.54488235919E+00 0.58553977923E+00
 0.63004965503E+00 0.67718130507E+00 0.72545921997E+00 0.77323111078E+00 0.81874448936E+00
 0.86022665962E+00 0.89596516095E+00 0.92438919934E+00 0.94416425217E+00 0.95430685209E+00
 0.95429533780E+00 0.94413327645E+00 0.92434356258E+00 0.89590470836E+00 0.86015166890E+00
 0.81866157828E+00 0.77314758151E+00 0.72537635851E+00 0.67709888027E+00 0.62997199554E+00
 0.58547165517E+00 0.54482361465E+00 0.50897014517E+00 0.47857078453E+00 0.45403188729E+00
 0.43556254847E+00 0.42324390541E+00 0.41709071229E+00 0.41709538406E+00 0.40786336486E+00
 0.41709932200E+00 0.43250733213E+00 0.45405930195E+00 0.48161828042E+00 0.51486965269E+00
 0.55326055924E+00 0.59595706829E+00 0.64183371439E+00 0.68950407465E+00 0.73738438673E+00
 0.78377323133E+00 0.82693365636E+00 0.86516938635E+00 0.89689396259E+00 0.92070505188E+00
 0.93547994027E+00 0.94048555227E+00 0.93546685914E+00 0.92067756662E+00 0.89684610062E+00
 0.86509475816E+00 0.82683567034E+00 0.78366644575E+00 0.73728389488E+00 0.68941676656E+00
 0.64175941828E+00 0.59589276336E+00 0.55320237035E+00 0.51481565408E+00 0.48157133505E+00
 0.45402414179E+00 0.43248450436E+00 0.41708528106E+00 0.40785600085E+00 0.40478533209E+00
 0.39864267308E+00 0.40478895232E+00 0.41709893603E+00 0.43558049527E+00 0.46016567983E+00
 0.49063576830E+00 0.52655119260E+00 0.56720007511E+00 0.61157737468E+00 0.65840234278E+00
 0.70617152003E+00 0.75323459856E+00 0.79787790815E+00 0.83840325282E+00 0.87319669195E+00
 0.90079406407E+00 0.91995934137E+00 0.92978242722E+00 0.92977677011E+00 0.91994043311E+00
 0.90075591436E+00 0.87313194409E+00 0.83831063368E+00 0.79776729484E+00 0.75312259604E+00
 0.70607168152E+00 0.65831954332E+00 0.61150902621E+00 0.56714047145E+00 0.52649616193E+00
 0.49058582146E+00 0.46012484532E+00 0.43555147695E+00 0.41708048323E+00 0.40477843056E+00
 0.39863912898E+00 0.40559150691E+00 0.40886346599E+00 0.41867218316E+00 0.43500058909E+00
 0.45777821273E+00 0.48682649546E+00 0.52179512025E+00 0.56210093822E+00 0.60688371319E+00
 0.65499160600E+00 0.70500264607E+00 0.75527905954E+00 0.80404352708E+00 0.84946367787E+00
 0.88973531335E+00 0.92316463343E+00 0.94825827254E+00 0.96382786716E+00 0.96910037113E+00
 0.96380662809E+00 0.94821600487E+00 0.92310240854E+00 0.88965577738E+00 0.84937135859E+00
 0.80394456606E+00 0.75518020026E+00 0.70490960060E+00 0.65490772403E+00 0.60681000471E+00
 0.56203730958E+00 0.52174155740E+00 0.48678329661E+00 0.45774552789E+00 0.43497795975E+00
 0.41865844920E+00 0.40885713629E+00 0.40885748619E+00 0.40886030009E+00 0.41589011984E+00
 0.42991305788E+00 0.45084296419E+00 0.47850952596E+00 0.51261034886E+00 0.55265171945E+00
 0.59789147571E+00 0.64729956158E+00 0.69954842394E+00 0.75304025926E+00 0.80596909216E+00
 0.85640444929E+00 0.90238120363E+00 0.94199138302E+00 0.97348520983E+00 0.99538670599E+00
 0.10066165549E+01 0.10066017998E+01 0.99534398035E+00 0.97342047564E+00 0.94191486049E+00
 0.90230174116E+00 0.85632407596E+00 0.80588489769E+00 0.75295081556E+00 0.69945697533E+00
 0.64721242391E+00 0.59781520257E+00 0.55259053700E+00 0.51256418755E+00 0.47847494276E+00
 0.45081700959E+00 0.42989532190E+00 0.41588058532E+00 0.41865955623E+00 0.41490591475E+00
 0.41866575314E+00 0.42991043380E+00 0.44854541317E+00 0.47439866962E+00 0.50719611123E+00
 0.54651677243E+00 0.59173385873E+00 0.64195663272E+00 0.69598853558E+00 0.75231761610E+00
 0.80915197727E+00 0.86449588774E+00 0.91624535363E+00 0.96228795152E+00 0.10006118353E+01
 0.10294332000E+01 0.10473357398E+01 0.10534018125E+01 0.10473115370E+01 0.10293843900E+01
 0.10005437199E+01 0.96221083838E+00 0.91616576730E+00 0.86441309716E+00 0.80906434898E+00
 0.75222793886E+00 0.69590209733E+00 0.64187831054E+00 0.59166796143E+00 0.54646555714E+00
 0.50715735355E+00 0.47436809292E+00 0.44852191003E+00 0.42989571339E+00 0.43497927200E+00
 0.42702045099E+00 0.42702292910E+00 0.43498965898E+00 0.45083783942E+00 0.47439777734E+00
 0.50541090916E+00 0.54350832100E+00 0.58816228893E+00 0.63862179575E+00 0.69384745913E+00
 0.75246304520E+00 0.81274827241E+00 0.87268963586E+00 0.93007622127E+00 0.98261165093E+00
 0.10280324874E+01 0.10642442617E+01 0.10894763030E+01 0.11024350493E+01 0.11024311899E+01
 0.10894591802E+01 0.10642051517E+01 0.10279703437E+01 0.98253160455E+00 0.92998358522E+00
 0.87259145626E+00 0.81265520846E+00 0.75238258825E+00 0.69377844662E+00 0.63856029966E+00
 0.58810861764E+00 0.54346391772E+00 0.50537385298E+00 0.47436682226E+00 0.45081613042E+00
 0.45774552790E+00 0.44521266786E+00 0.44101849674E+00 0.44521702561E+00 0.45776121157E+00
 0.47850055809E+00 0.50719290838E+00 0.54350786750E+00 0.58699705175E+00 0.63703394018E+00
 0.69274019378E+00 0.75291093902E+00 0.81596116999E+00 0.87992949181E+00 0.94255353534E+00
 0.10013896223E+01 0.10539452407E+01 0.10978246872E+01 0.11308975838E+01 0.11514749509E+01
 0.11584633324E+01 0.11514766886E+01 0.11308869927E+01 0.10977896914E+01 0.10538837217E+01
 0.10013046989E+01 0.94245332840E+00 0.87983076631E+00 0.81588016394E+00 0.75284832484E+00
 0.69268443599E+00 0.63697905906E+00 0.58694703634E+00 0.54346539457E+00 0.50715624651E+00
 0.47847180376E+00 0.48678036594E+00 0.46942096059E+00 0.46068600547E+00 0.46068647939E+00
 0.46942862799E+00 0.48680231991E+00 0.51259299586E+00 0.54650553915E+00 0.58815895315E+00
 0.63703619182E+00 0.69240896845E+00 0.75325330481E+00 0.81816498670E+00 0.88531024748E+00
 0.95245586046E+00 0.10170765292E+01 0.10764971749E+01 0.11280488852E+01 0.11692495351E+01
 0.11980036299E+01 0.12127867280E+01 0.12127879835E+01 0.11979993632E+01 0.11692277400E+01
 0.11280078392E+01 0.10764392331E+01 0.10170009671E+01 0.95236890255E+00 0.88522928654E+00
 0.81810028184E+00 0.75319628371E+00 0.69234939276E+00 0.63697891749E+00 0.58811277740E+00
 0.54646844622E+00 0.51256090694E+00 0.52173566007E+00 0.49944216814E+00 0.48595746475E+00
 0.48144172194E+00 0.48595923098E+00 0.49945726618E+00 0.52176398930E+00 0.55262128241E+00
 0.59170862374E+00 0.63861112070E+00 0.69274283603E+00 0.75325759963E+00 0.81895275307E+00
 0.88818018616E+00 0.95881951927E+00 0.10283499737E+01 0.10939893642E+01 0.11528551339E+01
 0.12021491643E+01 0.12393764753E+01 0.12625646543E+01 0.12704412420E+01 0.12625585351E+01
 0.12393544399E+01 0.12021126233E+01 0.11528152718E+01 0.10939452877E+01 0.10282911309E+01
 0.95874918876E+00 0.88811344274E+00 0.81889194959E+00 0.75319339459E+00 0.69267853867E+00
 0.63856157036E+00 0.59167496577E+00 0.55259092843E+00 0.56203156926E+00 0.53486288150E+00
 0.51658537374E+00 0.50739039636E+00 0.50738962542E+00 0.51659402240E+00 0.53489071381E+00
 0.56206468587E+00 0.59784713582E+00 0.64191567045E+00 0.69382354928E+00 0.75290237253E+00
 0.81816168655E+00 0.88817884592E+00 0.96101830891E+00 0.10342508085E+01 0.11050750178E+01
 0.11704795283E+01 0.12274213432E+01 0.12730471674E+01 0.13049444298E+01 0.13213604441E+01
 0.13213609444E+01 0.13049351884E+01 0.12730184828E+01 0.12273863585E+01 0.11704500369E+01
 0.11050382401E+01 0.10341936308E+01 0.96095240590E+00 0.88811922460E+00 0.81810317453E+00
 0.75283979542E+00 0.69377139414E+00 0.64188409243E+00 0.59782137586E+00 0.60681000461E+00
 0.57500553923E+00 0.55207921584E+00 0.53823035977E+00 0.53359338245E+00 0.53823141768E+00
 0.55210164872E+00 0.57504661066E+00 0.60684432960E+00 0.64724723232E+00 0.69593670508E+00
 0.75242046479E+00 0.81592632805E+00 0.88528582830E+00 0.95881233129E+00 0.10342543440E+01
 0.11088801354E+01 0.11796396178E+01 0.12433375233E+01 0.12968388700E+01 0.13373331629E+01
 0.13625982765E+01 0.13711968653E+01 0.13626128970E+01 0.13373341755E+01 0.12968185745E+01
 0.12433138928E+01 0.11796134373E+01 0.11088324668E+01 0.10341886176E+01 0.95875508616E+00
 0.88524297073E+00 0.81588016383E+00 0.75237052246E+00 0.69590099037E+00 0.64722282753E+00
 0.65491722820E+00 0.61890173913E+00 0.59166665423E+00 0.57339602836E+00 0.56421660863E+00