   6   6   0   0
  0.2185851E+02  0.3190316E-09  0.3190316E-09  0.1487900E-08  0.5000000E-15
  1.000000000000000E-004
  CAR 
 unknown system                          
      8.32045981    -12.92960686  301      3.30898575      1.00000000
    -12.930  0.0000E+00  0.0000E+00
    -12.859  0.0000E+00  0.0000E+00
    -12.788  0.0000E+00  0.0000E+00
    -12.717  0.0000E+00  0.0000E+00
    -12.646  0.0000E+00  0.0000E+00
    -12.575  0.0000E+00  0.0000E+00
    -12.505  0.0000E+00  0.0000E+00
    -12.434  0.0000E+00  0.0000E+00
    -12.363  0.0000E+00  0.0000E+00
    -12.292  0.0000E+00  0.0000E+00
    -12.221  0.0000E+00  0.0000E+00
    -12.150  0.0000E+00  0.0000E+00
    -12.080  0.0000E+00  0.0000E+00
    -12.009  0.0000E+00  0.0000E+00
    -11.938  0.0000E+00  0.0000E+00
    -11.867  0.0000E+00  0.0000E+00
    -11.796  0.0000E+00  0.0000E+00
    -11.725  0.0000E+00  0.0000E+00
    -11.655  0.0000E+00  0.0000E+00
    -11.584  0.0000E+00  0.0000E+00
    -11.513  0.0000E+00  0.0000E+00
    -11.442  0.0000E+00  0.0000E+00
    -11.371  0.0000E+00  0.0000E+00
    -11.300  0.0000E+00  0.0000E+00
    -11.230  0.0000E+00  0.0000E+00
    -11.159  0.0000E+00  0.0000E+00
    -11.088  0.0000E+00  0.0000E+00
    -11.017  0.0000E+00  0.0000E+00
    -10.946  0.0000E+00  0.0000E+00
    -10.875  0.1080E+01  0.2466E-01
    -10.805  0.9803E+00  0.1026E+00
    -10.734  0.1136E+01  0.1775E+00
    -10.663  0.1094E+01  0.2588E+00
    -10.592  0.1102E+01  0.3351E+00
    -10.521  0.1169E+01  0.4156E+00
    -10.450  0.1206E+01  0.5007E+00
    -10.380  0.1202E+01  0.5853E+00
    -10.309  0.1231E+01  0.6713E+00
    -10.238  0.1279E+01  0.7602E+00
    -10.167  0.1328E+01  0.8525E+00
    -10.096  0.1362E+01  0.9479E+00
    -10.025  0.1412E+01  0.1046E+01
     -9.955  0.1463E+01  0.1148E+01
     -9.884  0.1517E+01  0.1253E+01
     -9.813  0.1573E+01  0.1363E+01
     -9.742  0.1693E+01  0.1478E+01
     -9.671  0.4381E+01  0.1673E+01
     -9.600  0.4290E+01  0.1965E+01
     -9.530  0.4436E+01  0.2268E+01
     -9.459  0.4655E+01  0.2593E+01
     -9.388  0.5248E+01  0.2943E+01
     -9.317  0.5833E+01  0.3336E+01
     -9.246  0.6528E+01  0.3773E+01
     -9.175  0.7674E+01  0.4275E+01
     -9.105  0.8841E+01  0.4976E+01
     -9.034  0.7751E+01  0.5549E+01
     -8.963  0.9860E+01  0.6158E+01
     -8.892  0.9805E+01  0.6902E+01
     -8.821  0.5892E+01  0.7521E+01
     -8.750  0.4527E+01  0.7914E+01
     -8.680  0.0000E+00  0.8000E+01
     -8.609  0.0000E+00  0.8000E+01
     -8.538  0.0000E+00  0.8000E+01
     -8.467  0.0000E+00  0.8000E+01
     -8.396  0.0000E+00  0.8000E+01
     -8.325  0.0000E+00  0.8000E+01
     -8.255  0.0000E+00  0.8000E+01
     -8.184  0.0000E+00  0.8000E+01
     -8.113  0.0000E+00  0.8000E+01
     -8.042  0.0000E+00  0.8000E+01
     -7.971  0.0000E+00  0.8000E+01
     -7.900  0.0000E+00  0.8000E+01
     -7.830  0.0000E+00  0.8000E+01
     -7.759  0.0000E+00  0.8000E+01
     -7.688  0.0000E+00  0.8000E+01
     -7.617  0.0000E+00  0.8000E+01
     -7.546  0.0000E+00  0.8000E+01
     -7.475  0.0000E+00  0.8000E+01
     -7.405  0.0000E+00  0.8000E+01
     -7.334  0.0000E+00  0.8000E+01
     -7.263  0.0000E+00  0.8000E+01
     -7.192  0.0000E+00  0.8000E+01
     -7.121  0.0000E+00  0.8000E+01
     -7.050  0.0000E+00  0.8000E+01
     -6.980  0.0000E+00  0.8000E+01
     -6.909  0.0000E+00  0.8000E+01
     -6.838  0.0000E+00  0.8000E+01
     -6.767  0.0000E+00  0.8000E+01
     -6.696  0.0000E+00  0.8000E+01
     -6.625  0.0000E+00  0.8000E+01
     -6.555  0.0000E+00  0.8000E+01
     -6.484  0.0000E+00  0.8000E+01
     -6.413  0.0000E+00  0.8000E+01
     -6.342  0.0000E+00  0.8000E+01
     -6.271  0.0000E+00  0.8000E+01
     -6.200  0.0000E+00  0.8000E+01
     -6.130  0.0000E+00  0.8000E+01
     -6.059  0.0000E+00  0.8000E+01
     -5.988  0.0000E+00  0.8000E+01
     -5.917  0.0000E+00  0.8000E+01
     -5.846  0.0000E+00  0.8000E+01
     -5.775  0.0000E+00  0.8000E+01
     -5.705  0.0000E+00  0.8000E+01
     -5.634  0.0000E+00  0.8000E+01
     -5.563  0.0000E+00  0.8000E+01
     -5.492  0.0000E+00  0.8000E+01
     -5.421  0.0000E+00  0.8000E+01
     -5.350  0.0000E+00  0.8000E+01
     -5.280  0.0000E+00  0.8000E+01
     -5.209  0.0000E+00  0.8000E+01
     -5.138  0.0000E+00  0.8000E+01
     -5.067  0.0000E+00  0.8000E+01
     -4.996  0.0000E+00  0.8000E+01
     -4.925  0.0000E+00  0.8000E+01
     -4.855  0.0000E+00  0.8000E+01
     -4.784  0.0000E+00  0.8000E+01
     -4.713  0.0000E+00  0.8000E+01
     -4.642  0.0000E+00  0.8000E+01
     -4.571  0.0000E+00  0.8000E+01
     -4.500  0.0000E+00  0.8000E+01
     -4.430  0.0000E+00  0.8000E+01
     -4.359  0.0000E+00  0.8000E+01
     -4.288  0.0000E+00  0.8000E+01
     -4.217  0.0000E+00  0.8000E+01
     -4.146  0.0000E+00  0.8000E+01
     -4.075  0.0000E+00  0.8000E+01
     -4.005  0.0000E+00  0.8000E+01
     -3.934  0.0000E+00  0.8000E+01
     -3.863  0.0000E+00  0.8000E+01
     -3.792  0.0000E+00  0.8000E+01
     -3.721  0.0000E+00  0.8000E+01
     -3.650  0.0000E+00  0.8000E+01
     -3.580  0.0000E+00  0.8000E+01
     -3.509  0.0000E+00  0.8000E+01
     -3.438  0.0000E+00  0.8000E+01
     -3.367  0.0000E+00  0.8000E+01
     -3.296  0.0000E+00  0.8000E+01
     -3.225  0.0000E+00  0.8000E+01
     -3.155  0.0000E+00  0.8000E+01
     -3.084  0.0000E+00  0.8000E+01
     -3.013  0.0000E+00  0.8000E+01
     -2.942  0.0000E+00  0.8000E+01
     -2.871  0.0000E+00  0.8000E+01
     -2.800  0.0000E+00  0.8000E+01
     -2.730  0.0000E+00  0.8000E+01
     -2.659  0.0000E+00  0.8000E+01
     -2.588  0.3885E+00  0.8004E+01
     -2.517  0.2669E+01  0.8112E+01
     -2.446  0.2552E+01  0.8290E+01
     -2.375  0.2974E+01  0.8486E+01
     -2.305  0.3673E+01  0.8727E+01
     -2.234  0.3938E+01  0.8994E+01
     -2.163  0.5611E+01  0.9346E+01
     -2.092  0.6533E+01  0.9776E+01
     -2.021  0.1065E+02  0.1035E+02
     -1.950  0.7775E+01  0.1097E+02
     -1.880  0.8629E+01  0.1155E+02
     -1.809  0.7051E+01  0.1220E+02
     -1.738  0.3876E+01  0.1270E+02
     -1.667  0.5589E+01  0.1294E+02
     -1.596  0.3729E+01  0.1325E+02
     -1.525  0.2482E+01  0.1348E+02
     -1.455  0.2142E+01  0.1364E+02
     -1.384  0.1891E+01  0.1379E+02
     -1.313  0.1722E+01  0.1391E+02
     -1.242  0.1532E+01  0.1403E+02
     -1.171  0.1440E+01  0.1413E+02
     -1.100  0.1400E+01  0.1423E+02
     -1.030  0.1366E+01  0.1433E+02
     -0.959  0.1488E+01  0.1443E+02
     -0.888  0.5708E+01  0.1469E+02
     -0.817  0.8358E+01  0.1522E+02
     -0.746  0.1180E+02  0.1601E+02
     -0.675  0.1135E+02  0.1683E+02
     -0.605  0.8186E+01  0.1752E+02
     -0.534  0.7759E+01  0.1807E+02
     -0.463  0.2493E+01  0.1831E+02
     -0.392  0.2170E+01  0.1848E+02
     -0.321  0.2875E+01  0.1866E+02
     -0.250  0.2512E+01  0.1885E+02
     -0.180  0.3983E+01  0.1906E+02
     -0.109  0.8680E+01  0.1948E+02
     -0.038  0.1410E+02  0.2022E+02
      0.033  0.8502E+01  0.2132E+02
      0.104  0.5043E+01  0.2171E+02
      0.175  0.6296E+01  0.2212E+02
      0.245  0.5855E+01  0.2255E+02
      0.316  0.3871E+01  0.2287E+02
      0.387  0.3618E+01  0.2313E+02
      0.458  0.3161E+01  0.2338E+02
      0.529  0.3148E+01  0.2359E+02
      0.600  0.3611E+01  0.2388E+02
      0.670  0.2095E+01  0.2408E+02
      0.741  0.1910E+01  0.2422E+02
      0.812  0.8014E+01  0.2461E+02
      0.883  0.1939E+01  0.2488E+02
      0.954  0.1786E+01  0.2500E+02
      1.025  0.4132E+01  0.2518E+02
      1.095  0.6704E+01  0.2560E+02
      1.166  0.1036E+02  0.2619E+02
      1.237  0.8217E+01  0.2681E+02
      1.308  0.8337E+01  0.2751E+02
      1.379  0.6812E+01  0.2803E+02
      1.450  0.6684E+01  0.2851E+02
      1.520  0.4548E+01  0.2898E+02
      1.591  0.3060E+01  0.2921E+02
      1.662  0.5447E+01  0.2955E+02
      1.733  0.5271E+01  0.2992E+02
      1.804  0.4836E+01  0.3028E+02
      1.875  0.4462E+01  0.3061E+02
      1.945  0.4924E+01  0.3094E+02
      2.016  0.5109E+01  0.3130E+02
      2.087  0.3783E+01  0.3163E+02
      2.158  0.2532E+01  0.3181E+02
      2.229  0.4722E+01  0.3207E+02
      2.300  0.6131E+01  0.3242E+02
      2.370  0.8234E+01  0.3301E+02
      2.441  0.5565E+01  0.3350E+02
      2.512  0.5441E+01  0.3389E+02
      2.583  0.5247E+01  0.3427E+02
      2.654  0.4692E+01  0.3462E+02
      2.725  0.3937E+01  0.3492E+02
      2.795  0.3503E+01  0.3518E+02
      2.866  0.2942E+01  0.3542E+02
      2.937  0.2801E+01  0.3563E+02
      3.008  0.1959E+01  0.3580E+02
      3.079  0.5758E+00  0.3591E+02
      3.150  0.5070E+00  0.3595E+02
      3.220  0.4162E+00  0.3599E+02
      3.291  0.3784E-02  0.3600E+02
      3.362  0.0000E+00  0.3600E+02
      3.433  0.0000E+00  0.3600E+02
      3.504  0.0000E+00  0.3600E+02
      3.575  0.0000E+00  0.3600E+02
      3.645  0.0000E+00  0.3600E+02
      3.716  0.0000E+00  0.3600E+02
      3.787  0.0000E+00  0.3600E+02
      3.858  0.0000E+00  0.3600E+02
      3.929  0.0000E+00  0.3600E+02
      4.000  0.0000E+00  0.3600E+02
      4.070  0.0000E+00  0.3600E+02
      4.141  0.0000E+00  0.3600E+02
      4.212  0.0000E+00  0.3600E+02
      4.283  0.0000E+00  0.3600E+02
      4.354  0.0000E+00  0.3600E+02
      4.425  0.0000E+00  0.3600E+02
      4.495  0.0000E+00  0.3600E+02
      4.566  0.0000E+00  0.3600E+02
      4.637  0.0000E+00  0.3600E+02
      4.708  0.0000E+00  0.3600E+02
      4.779  0.0000E+00  0.3600E+02
      4.850  0.7710E+00  0.3604E+02
      4.920  0.9923E+00  0.3610E+02
      4.991  0.2616E+01  0.3622E+02
      5.062  0.4067E+01  0.3648E+02
      5.133  0.7596E+01  0.3686E+02
      5.204  0.1069E+02  0.3754E+02
      5.275  0.2711E+02  0.3846E+02
      5.345  0.2454E+01  0.3947E+02
      5.416  0.3662E+01  0.3965E+02
      5.487  0.6265E+01  0.3998E+02
      5.558  0.8538E+01  0.4055E+02
      5.629  0.8540E+01  0.4120E+02
      5.700  0.6274E+01  0.4170E+02
      5.770  0.8276E+01  0.4217E+02
      5.841  0.5526E+01  0.4269E+02
      5.912  0.3935E+01  0.4300E+02
      5.983  0.3092E+01  0.4326E+02
      6.054  0.2098E+01  0.4345E+02
      6.125  0.3249E+01  0.4361E+02
      6.195  0.1782E+01  0.4376E+02
      6.266  0.2141E+01  0.4394E+02
      6.337  0.0000E+00  0.4400E+02
      6.408  0.0000E+00  0.4400E+02
      6.479  0.0000E+00  0.4400E+02
      6.550  0.0000E+00  0.4400E+02
      6.620  0.0000E+00  0.4400E+02
      6.691  0.0000E+00  0.4400E+02
      6.762  0.0000E+00  0.4400E+02
      6.833  0.0000E+00  0.4400E+02
      6.904  0.0000E+00  0.4400E+02
      6.975  0.0000E+00  0.4400E+02
      7.045  0.0000E+00  0.4400E+02
      7.116  0.0000E+00  0.4400E+02
      7.187  0.0000E+00  0.4400E+02
      7.258  0.0000E+00  0.4400E+02
      7.329  0.0000E+00  0.4400E+02
      7.400  0.0000E+00  0.4400E+02
      7.470  0.0000E+00  0.4400E+02
      7.541  0.0000E+00  0.4400E+02
      7.612  0.0000E+00  0.4400E+02
      7.683  0.0000E+00  0.4400E+02
      7.754  0.0000E+00  0.4400E+02
      7.825  0.0000E+00  0.4400E+02
      7.895  0.0000E+00  0.4400E+02
      7.966  0.0000E+00  0.4400E+02
      8.037  0.0000E+00  0.4400E+02
      8.108  0.0000E+00  0.4400E+02
      8.179  0.0000E+00  0.4400E+02
      8.250  0.0000E+00  0.4400E+02
      8.320  0.0000E+00  0.4400E+02
