Automatically generated mesh
      48
Reciprocal lattice
    0.00000000000000    0.00000000000000    0.00000000000000             1
    0.07142857142857    0.00000000000000    0.00000000000000             6
    0.14285714285714    0.00000000000000    0.00000000000000             6
    0.21428571428571   -0.00000000000000    0.00000000000000             6
    0.28571428571429    0.00000000000000    0.00000000000000             6
    0.35714285714286   -0.00000000000000    0.00000000000000             6
    0.42857142857143   -0.00000000000000    0.00000000000000             6
    0.50000000000000   -0.00000000000000    0.00000000000000             3
    0.07142857142857    0.07142857142857    0.00000000000000             6
    0.14285714285714    0.07142857142857    0.00000000000000            12
    0.21428571428571    0.07142857142857    0.00000000000000            12
    0.28571428571429    0.07142857142857    0.00000000000000            12
    0.35714285714286    0.07142857142857    0.00000000000000            12
    0.42857142857143    0.07142857142857    0.00000000000000            12
    0.14285714285714    0.14285714285714    0.00000000000000             6
    0.21428571428571    0.14285714285714    0.00000000000000            12
    0.28571428571429    0.14285714285714    0.00000000000000            12
    0.35714285714286    0.14285714285714    0.00000000000000            12
    0.42857142857143    0.14285714285714    0.00000000000000             6
    0.21428571428571    0.21428571428571    0.00000000000000             6
    0.28571428571429    0.21428571428571    0.00000000000000            12
    0.35714285714286    0.21428571428571    0.00000000000000            12
    0.28571428571429    0.28571428571429    0.00000000000000             6
    0.35714285714286    0.28571428571429    0.00000000000000             6
    0.00000000000000    0.00000000000000    0.33333333333333             2
    0.07142857142857    0.00000000000000    0.33333333333333            12
    0.14285714285714    0.00000000000000    0.33333333333333            12
    0.21428571428571   -0.00000000000000    0.33333333333333            12
    0.28571428571429    0.00000000000000    0.33333333333333            12
    0.35714285714286   -0.00000000000000    0.33333333333333            12
    0.42857142857143   -0.00000000000000    0.33333333333333            12
    0.50000000000000   -0.00000000000000    0.33333333333333             6
    0.07142857142857    0.07142857142857    0.33333333333333            12
    0.14285714285714    0.07142857142857    0.33333333333333            24
    0.21428571428571    0.07142857142857    0.33333333333333            24
    0.28571428571429    0.07142857142857    0.33333333333333            24
    0.35714285714286    0.07142857142857    0.33333333333333            24
    0.42857142857143    0.07142857142857    0.33333333333333            24
    0.14285714285714    0.14285714285714    0.33333333333333            12
    0.21428571428571    0.14285714285714    0.33333333333333            24
    0.28571428571429    0.14285714285714    0.33333333333333            24
    0.35714285714286    0.14285714285714    0.33333333333333            24
    0.42857142857143    0.14285714285714    0.33333333333333            12
    0.21428571428571    0.21428571428571    0.33333333333333            12
    0.28571428571429    0.21428571428571    0.33333333333333            24
    0.35714285714286    0.21428571428571    0.33333333333333            24
    0.28571428571429    0.28571428571429    0.33333333333333            12
    0.35714285714286    0.28571428571429    0.33333333333333            12
Tetrahedra
       511    0.00028344671202
         8         2         2         9        26
         8         1         2         2        26
         4         1         2        25        26
         4         2         9        26        33
         8         2        26        26        33
         8         2        25        26        26
         8         3         9        10        33
         8         2         3         9        33
         4         2         3        26        33
         4         3        10        33        34
         8         3        27        33        34
         8         3        26        27        33
         8         4        10        11        34
         8         3         4        10        34
         4         3         4        27        34
         4         4        11        34        35
         8         4        28        34        35
         8         4        27        28        34
         8         5        11        12        35
         8         4         5        11        35
         4         4         5        28        35
         4         5        12        35        36
         8         5        29        35        36
         8         5        28        29        35
         8         6        12        13        36
         8         5         6        12        36
         4         5         6        29        36
         4         6        13        36        37
         8         6        30        36        37
         8         6        29        30        36
         8         7        13        14        37
         8         6         7        13        37
         4         6         7        30        37
         4         7        14        37        38
         8         7        31        37        38
         8         7        30        31        37
         8         8        14        14        38
         8         7         8        14        38
         4         7         8        31        38
         4         8        14        38        38
         4         8        32        38        38
         8         8        31        32        38
         8         7        13        14        38
         4         7         8        32        38
         4         7        13        37        38
         8         7        31        32        38
         8         6        12        13        37
         4         6         7        31        37
         4         6        12        36        37
         8         6        30        31        37
         8         5        11        12        36
         4         5         6        30        36
         4         5        11        35        36
         8         5        29        30        36
         8         4        10        11        35
         4         4         5        29        35
         4         4        10        34        35
         8         4        28        29        35
         8         3         9        10        34
         4         3         4        28        34
         4         3         9        33        34
         8         3        27        28        34
         4         2         2         9        33
         4         2         3        27        33
         4         2         2        26        33
         8         2        26        27        33
         4         1         2        26        26
         4         1        25        26        26
         8         3         9        10        27
         8         2         3         9        27
         4         2         9        26        27
         4         9        10        27        34
         8         9        27        33        34
         8         9        26        27        33
         8        10        10        15        34
         8         9        10        10        34
         4         9        10        33        34
         4        10        15        34        39
         8        10        34        34        39
         8        10        33        34        34
         8        11        15        16        39
         8        10        11        15        39
         4        10        11        34        39
         4        11        16        39        40
         8        11        35        39        40
         8        11        34        35        39
         8        12        16        17        40
         8        11        12        16        40
         4        11        12        35        40
         4        12        17        40        41
         8        12        36        40        41
         8        12        35        36        40
         8        13        17        18        41
         8        12        13        17        41
         4        12        13        36        41
         4        13        18        41        42
         8        13        37        41        42
         8        13        36        37        41
         8        14        18        19        42
         8        13        14        18        42
         4        13        14        37        42
         4        14        19        42        43
         8        14        38        42        43
         8        14        37        38        42
         8        14        18        19        43
         4        14        14        19        43
         4        14        14        38        43
         4        14        18        42        43
         8        14        38        38        43
         8        13        17        18        42
         4        13        14        38        42
         4        13        17        41        42
         8        13        37        38        42
         8        12        16        17        41
         4        12        13        37        41
         4        12        16        40        41
         8        12        36        37        41
         8        11        15        16        40
         4        11        12        36        40
         4        11        15        39        40
         8        11        35        36        40
         4        10        10        15        39
         4        10        11        35        39
         4        10        10        34        39
         8        10        34        35        39
         4         9        10        34        34
         4         3         9        27        34
         4         9        33        34        34
         4         2         9        27        33
         8         4        10        11        28
         8         3         4        10        28
         4         3        10        27        28
         4        10        11        28        35
         8        10        28        34        35
         8        10        27        28        34
         8        11        15        16        35
         8        10        11        15        35
         4        10        15        34        35
         4        15        16        35        40
         8        15        35        39        40
         8        15        34        35        39
         8        16        16        20        40
         8        15        16        16        40
         4        15        16        39        40
         4        16        20        40        44
         8        16        40        40        44
         8        16        39        40        40
         8        17        20        21        44
         8        16        17        20        44
         4        16        17        40        44
         4        17        21        44        45
         8        17        41        44        45
         8        17        40        41        44
         8        18        21        22        45
         8        17        18        21        45
         4        17        18        41        45
         4        18        22        45        46
         8        18        42        45        46
         8        18        41        42        45
         8        19        22        22        46
         8        18        19        22        46
         4        18        19        42        46
         4        19        22        46        46
         4        19        43        46        46
         8        19        42        43        46
         8        18        21        22        46
         4        18        19        43        46
         4        18        21        45        46
         8        18        42        43        46
         8        17        20        21        45
         4        17        18        42        45
         4        17        20        44        45
         8        17        41        42        45
         4        16        16        20        44
         4        16        17        41        44
         4        16        16        40        44
         8        16        40        41        44
         4        15        16        40        40
         4        11        15        35        40
         4        15        39        40        40
         4        10        15        35        39
         4         4        10        28        35
         4         3        10        28        34
         8         5        11        12        29
         8         4         5        11        29
         4         4        11        28        29
         4        11        12        29        36
         8        11        29        35        36
         8        11        28        29        35
         8        12        16        17        36
         8        11        12        16        36
         4        11        16        35        36
         4        16        17        36        41
         8        16        36        40        41
         8        16        35        36        40
         8        17        20        21        41
         8        16        17        20        41
         4        16        20        40        41
         4        20        21        41        45
         8        20        41        44        45
         8        20        40        41        44
         8        21        21        23        45
         8        20        21        21        45
         4        20        21        44        45
         4        21        23        45        47
         8        21        45        45        47
         8        21        44        45        45
         8        22        23        24        47
         8        21        22        23        47
         4        21        22        45        47
         4        22        24        47        48
         8        22        46        47        48
         8        22        45        46        47
         8        22        23        24        48
         4        22        22        24        48
         4        22        22        46        48
         4        22        23        47        48
         8        22        46        46        48
         4        21        21        23        47
         4        21        22        46        47
         4        21        21        45        47
         8        21        45        46        47
         4        20        21        45        45
         4        17        20        41        45
         4        20        44        45        45
         4        16        20        41        44
         4        12        16        36        41
         4        11        16        36        40
         4         5        11        29        36
         4         4        11        29        35
         8         6        12        13        30
         8         5         6        12        30
         4         5        12        29        30
         4        12        13        30        37
         8        12        30        36        37
         8        12        29        30        36
         8        13        17        18        37
         8        12        13        17        37
         4        12        17        36        37
         4        17        18        37        42
         8        17        37        41        42
         8        17        36        37        41
         8        18        21        22        42
         8        17        18        21        42
         4        17        21        41        42
         4        21        22        42        46
         8        21        42        45        46
         8        21        41        42        45
         8        22        23        24        46
         8        21        22        23        46
         4        21        23        45        46
         4        23        24        46        48
         8        23        46        47        48
         8        23        45        46        47
         4        24        24        24        48
         8        23        24        24        48
         4        23        24        47        48
         4        24        24        48        48
         4        24        48        48        48
         8        24        47        48        48
         4        23        24        48        48
         4        22        23        46        48
         4        23        47        48        48
         4        21        23        46        47
         4        18        21        42        46
         4        17        21        42        45
         4        13        17        37        42
         4        12        17        37        41
         4         6        12        30        37
         4         5        12        30        36
         8         7        13        14        31
         8         6         7        13        31
         4         6        13        30        31
         4        13        14        31        38
         8        13        31        37        38
         8        13        30        31        37
         8        14        18        19        38
         8        13        14        18        38
         4        13        18        37        38
         4        18        19        38        43
         8        18        38        42        43
         8        18        37        38        42
         4        19        22        22        43
         8        18        19        22        43
         4        18        22        42        43
         4        22        22        43        46
         8        22        43        46        46
         8        22        42        43        46
         8        22        22        24        46
         4        22        24        46        46
         4        23        24        46        47
         8        24        46        47        48
         4        24        46        46        48
         4        23        24        24        47
         4        24        24        47        48
         4        22        24        46        47
         4        22        24        46        48
         4        19        22        43        46
         4        18        22        43        46
         4        14        18        38        43
         4        13        18        38        42
         4         7        13        31        38
         4         6        13        31        37
         4         8        14        14        32
         8         7         8        14        32
         4         7        14        31        32
         4        14        14        32        38
         8        14        32        38        38
         8        14        31        32        38
         8        14        14        19        38
         4        14        19        38        38
         4        18        19        38        42
         8        19        38        42        43
         4        19        38        38        43
         8        18        19        22        42
         4        19        22        42        43
         4        21        22        42        45
         8        22        42        45        46
         8        21        22        23        45
         4        22        23        45        46
         4        21        23        45        45
         4        23        45        45        47
         4        22        23        45        47
         4        18        22        42        45
         4        19        22        42        46
         4        14        19        38        42
         4        14        19        38        43
         4         8        14        32        38
         4         7        14        32        38
         8         7         8        14        31
         4         8        14        31        32
         4        13        14        31        37
         8        14        31        37        38
         8        13        14        18        37
         4        14        18        37        38
         4        17        18        37        41
         8        18        37        41        42
         8        17        18        21        41
         4        18        21        41        42
         4        20        21        41        44
         8        21        41        44        45
         4        20        21        21        44
         4        21        21        44        45
         4        17        21        41        44
         4        18        21        41        45
         4        13        18        37        41
         4        14        18        37        42
         4         7        14        31        37
         4         8        14        31        38
         8         6         7        13        30
         4         7        13        30        31
         4        12        13        30        36
         8        13        30        36        37
         8        12        13        17        36
         4        13        17        36        37
         4        16        17        36        40
         8        17        36        40        41
         8        16        17        20        40
         4        17        20        40        41
         4        16        20        40        40
         4        20        40        40        44
         4        17        20        40        44
         4        12        17        36        40
         4        13        17        36        41
         4         6        13        30        36
         4         7        13        30        37
         8         5         6        12        29
         4         6        12        29        30
         4        11        12        29        35
         8        12        29        35        36
         8        11        12        16        35
         4        12        16        35        36
         4        15        16        35        39
         8        16        35        39        40
         4        15        16        16        39
         4        16        16        39        40
         4        11        16        35        39
         4        12        16        35        40
         4         5        12        29        35
         4         6        12        29        36
         8         4         5        11        28
         4         5        11        28        29
         4        10        11        28        34
         8        11        28        34        35
         8        10        11        15        34
         4        11        15        34        35
         4        10        15        34        34
         4        15        34        34        39
         4        11        15        34        39
         4         4        11        28        34
         4         5        11        28        35
         8         3         4        10        27
         4         4        10        27        28
         4         9        10        27        33
         8        10        27        33        34
         4         9        10        10        33
         4        10        10        33        34
         4         3        10        27        33
         4         4        10        27        34
         8         2         3         9        26
         4         3         9        26        27
         4         2         9        26        26
         4         9        26        26        33
         4         3         9        26        33
         4         1         2         2        25
         4         2         2        25        26
        12        26        26        26        33
        12        25        26        26        26
         6        25        25        26        26
         6        26        26        33        33
        12        27        33        33        34
        12        26        27        33        33
        12        26        26        27        33
        12        27        33        34        34
        12        27        27        33        34
        12        26        27        27        33
        12        28        34        34        35
        12        27        28        34        34
        12        27        27        28        34
        12        28        34        35        35
        12        28        28        34        35
        12        27        28        28        34
        12        29        35        35        36
        12        28        29        35        35
        12        28        28        29        35
        12        29        35        36        36
        12        29        29        35        36
        12        28        29        29        35
        12        30        36        36        37
        12        29        30        36        36
        12        29        29        30        36
        12        30        36        37        37
        12        30        30        36        37
        12        29        30        30        36
        12        31        37        37        38
        12        30        31        37        37
        12        30        30        31        37
        12        31        37        38        38
        12        31        31        37        38
        12        30        31        31        37
        12        32        38        38        38
        12        31        32        38        38
        12        31        31        32        38
         6        32        32        38        38
        12        31        32        32        38
        12        34        34        34        39
        12        33        34        34        34
         6        33        33        34        34
         6        34        34        39        39
        12        35        39        39        40
        12        34        35        39        39
        12        34        34        35        39
        12        35        39        40        40
        12        35        35        39        40
        12        34        35        35        39
        12        36        40        40        41
        12        35        36        40        40
        12        35        35        36        40
        12        36        40        41        41
        12        36        36        40        41
        12        35        36        36        40
        12        37        41        41        42
        12        36        37        41        41
        12        36        36        37        41
        12        37        41        42        42
        12        37        37        41        42
        12        36        37        37        41
        12        38        42        42        43
        12        37        38        42        42
        12        37        37        38        42
        12        38        42        43        43
        12        38        38        42        43
        12        37        38        38        42
         6        38        38        43        43
        12        38        38        38        43
        12        40        40        40        44
        12        39        40        40        40
         6        39        39        40        40
         6        40        40        44        44
        12        41        44        44        45
        12        40        41        44        44
        12        40        40        41        44
        12        41        44        45        45
        12        41        41        44        45
        12        40        41        41        44
        12        42        45        45        46
        12        41        42        45        45
        12        41        41        42        45
        12        42        45        46        46
        12        42        42        45        46
        12        41        42        42        45
        12        43        46        46        46
        12        42        43        46        46
        12        42        42        43        46
         6        43        43        46        46
        12        42        43        43        46
        12        45        45        45        47
        12        44        45        45        45
         6        44        44        45        45
         6        45        45        47        47
        12        46        47        47        48
        12        45        46        47        47
        12        45        45        46        47
        12        46        47        48        48
        12        46        46        47        48
        12        45        46        46        47
         6        46        46        48        48
        12        46        46        46        48
         6        48        48        48        48
        12        47        48        48        48
         6        47        47        48        48
