       N       E                     dE             d eps       ncg     rms          rms(c)
DAV:   1     0.200385015841E+03    0.20039E+03   -0.14686E+04  2112   0.126E+03
DAV:   2    -0.284589761009E+02   -0.22884E+03   -0.22258E+03  2868   0.263E+02
DAV:   3    -0.462581119900E+02   -0.17799E+02   -0.17697E+02  2820   0.743E+01
DAV:   4    -0.468076562137E+02   -0.54954E+00   -0.54882E+00  2956   0.137E+01
DAV:   5    -0.468203660029E+02   -0.12710E-01   -0.12706E-01  2834   0.209E+00    0.973E+00
RMM:   6    -0.444215606769E+02    0.23988E+01   -0.24192E+01  2349   0.195E+01    0.335E+00
RMM:   7    -0.436944170637E+02    0.72714E+00   -0.18970E+00  2319   0.554E+00    0.178E+00
RMM:   8    -0.436322221310E+02    0.62195E-01   -0.90796E-01  2431   0.335E+00    0.843E-01
RMM:   9    -0.436231386536E+02    0.90835E-02   -0.31850E-01  2492   0.231E+00    0.596E-01
RMM:  10    -0.436054642869E+02    0.17674E-01   -0.70205E-02  2512   0.114E+00    0.737E-02
RMM:  11    -0.436056051735E+02   -0.14089E-03   -0.34434E-03  2719   0.233E-01    0.304E-02
RMM:  12    -0.436057406932E+02   -0.13552E-03   -0.53120E-04  2715   0.103E-01    0.121E-02
RMM:  13    -0.436057600097E+02   -0.19316E-04   -0.22179E-04  2744   0.582E-02    0.189E-02
RMM:  14    -0.436057469940E+02    0.13016E-04   -0.70449E-05  2130   0.372E-02    0.271E-03
RMM:  15    -0.436057474448E+02   -0.45080E-06   -0.97171E-06  1620   0.146E-02
   1 F= -.44937034E+02 E0= -.44937034E+02  d E =0.000000E+00
