 vasp.5.4.4.18Apr17-6-g9f103f2a35 (build Jun 30 2017 11:15:00) complex          
  
 executed on    STALLO_VASP_5.4.4 date 2019.11.08  12:19:59
 running on    4 total cores
 distrk:  each k-point on    4 cores,    1 groups
 distr:  one band on NCORES_PER_BAND=   2 cores,    2 groups


--------------------------------------------------------------------------------------------------------


 INCAR:
 POTCAR:   PAW_PBE Mo 08Apr2002                   
 POTCAR:    PAW_PBE S 17Jan2003                   
 POTCAR:   PAW_PBE Mo 08Apr2002                   
   VRHFIN =Mo: 4p5s4d                                                           
   LEXCH  = PE                                                                  
   EATOM  =   217.5180 eV,   15.9871 Ry                                         
                                                                                
   TITEL  = PAW_PBE Mo 08Apr2002                                                
   LULTRA =        F    use ultrasoft PP ?                                      
   IUNSCR =        1    unscreen: 0-lin 1-nonlin 2-no                           
   RPACOR =    2.200    partial core radius                                     
   POMASS =   95.940; ZVAL   =    6.000    mass and valenz                      
   RCORE  =    2.750    outmost cutoff radius                                   
   RWIGS  =    2.750; RWIGS  =    1.455    wigner-seitz radius (au A)           
   ENMAX  =  224.584; ENMIN  =  168.438 eV                                      
   RCLOC  =    2.111    cutoff for local pot                                    
   LCOR   =        T    correct aug charges                                     
   LPAW   =        T    paw PP                                                  
   EAUG   =  345.278                                                            
   DEXC   =    -.088                                                            
   RMAX   =    3.077    core radius for proj-oper                               
   RAUG   =    1.300    factor for augmentation sphere                          
   RDEP   =    2.815    radius for radial grids                                 
   QCUT   =   -4.063; QGAM   =    8.126    optimization parameters              
                                                                                
   Description                                                                  
     l     E      TYP  RCUT    TYP  RCUT                                        
     2   .000     23  2.500                                                     
     2   .000     23  2.500                                                     
     0   .000     23  2.600                                                     
     0  1.000     23  2.600                                                     
     1   .400     23  2.750                                                     
     1  2.000     23  2.750                                                     
     3   .000      7   .000                                                     
  local pseudopotential read in
  partial core-charges read in
  atomic valenz-charges read in
  non local Contribution for L=           2  read in
    real space projection operators read in
  non local Contribution for L=           2  read in
    real space projection operators read in
  non local Contribution for L=           0  read in
    real space projection operators read in
  non local Contribution for L=           0  read in
    real space projection operators read in
  non local Contribution for L=           1  read in
    real space projection operators read in
  non local Contribution for L=           1  read in
    real space projection operators read in
    PAW grid and wavefunctions read in
 
   number of l-projection  operators is LMAX  =           6
   number of lm-projection operators is LMMAX =          18
 
 POTCAR:    PAW_PBE S 17Jan2003                   
   VRHFIN =S : s2p4                                                             
   LEXCH  = PE                                                                  
   EATOM  =   276.8230 eV,   20.3459 Ry                                         
                                                                                
   TITEL  = PAW_PBE S 17Jan2003                                                 
   LULTRA =        F    use ultrasoft PP ?                                      
   IUNSCR =        1    unscreen: 0-lin 1-nonlin 2-no                           
   RPACOR =    1.500    partial core radius                                     
   POMASS =   32.066; ZVAL   =    6.000    mass and valenz                      
   RCORE  =    1.900    outmost cutoff radius                                   
   RWIGS  =    2.200; RWIGS  =    1.164    wigner-seitz radius (au A)           
   ENMAX  =  280.000; ENMIN  =  194.016 eV                                      
   ICORE  =        2    local potential                                         
   LCOR   =        T    correct aug charges                                     
   LPAW   =        T    paw PP                                                  
   EAUG   =  335.092                                                            
   DEXC   =     .000                                                            
   RMAX   =    2.867    core radius for proj-oper                               
   RAUG   =    1.300    factor for augmentation sphere                          
   RDEP   =    1.954    radius for radial grids                                 
   QCUT   =   -4.360; QGAM   =    8.721    optimization parameters              
                                                                                
   Description                                                                  
     l     E      TYP  RCUT    TYP  RCUT                                        
     0   .000     23  1.900                                                     
     0   .000     23  1.900                                                     
     1   .000     23  1.900                                                     
     1   .000     23  1.900                                                     
     2   .000     23  1.900                                                     
  local pseudopotential read in
  partial core-charges read in
  atomic valenz-charges read in
  non local Contribution for L=           0  read in
    real space projection operators read in
  non local Contribution for L=           0  read in
    real space projection operators read in
  non local Contribution for L=           1  read in
    real space projection operators read in
  non local Contribution for L=           1  read in
    real space projection operators read in
    PAW grid and wavefunctions read in
 
   number of l-projection  operators is LMAX  =           4
   number of lm-projection operators is LMMAX =           8
 
 PAW_PBE Mo 08Apr2002                   :
 energy of atom  1       EATOM= -217.5180
 kinetic energy error for atom=    0.0023 (will be added to EATOM!!)
  PAW_PBE S 17Jan2003                   :
 energy of atom  2       EATOM= -276.8230
 kinetic energy error for atom=    0.0033 (will be added to EATOM!!)
 
 
 POSCAR: MoS2_mp-2815_computed                   
  positions in direct lattice
  No initial velocities read in
 exchange correlation table for  LEXCH =        8
   RHO(1)=    0.500       N(1)  =     2000
   RHO(2)=  100.500       N(2)  =     4000
 


--------------------------------------------------------------------------------------------------------


 ion  position               nearest neighbor table
   1  0.333  0.667  0.250-   5 2.42   4 2.42   4 2.42   5 2.42   5 2.42   4 2.42
   2  0.667  0.333  0.750-   6 2.42   3 2.42   3 2.42   6 2.42   6 2.42   3 2.42
   3  0.333  0.667  0.855-   2 2.42   2 2.42   2 2.42
   4  0.667  0.333  0.145-   1 2.42   1 2.42   1 2.42
   5  0.667  0.333  0.355-   1 2.42   1 2.42   1 2.42
   6  0.333  0.667  0.645-   2 2.42   2 2.42   2 2.42
 
  LATTYP: Found a hexagonal cell.
 ALAT       =     3.1903157300
 C/A-ratio  =     4.6638030713
  
  Lattice vectors:
  
 A1 = (   3.1903157300,   0.0000000000,   0.0000000000)
 A2 = (  -1.5951578650,   2.7628944683,   0.0000000000)
 A3 = (   0.0000000000,   0.0000000000,  14.8790043000)


Analysis of symmetry for initial positions (statically):
=====================================================================
 Subroutine PRICEL returns:
 Original cell was already a primitive cell.
 

 Routine SETGRP: Setting up the symmetry group for a 
 hexagonal supercell.


 Subroutine GETGRP returns: Found 24 space group operations
 (whereof 12 operations were pure point group operations)
 out of a pool of 24 trial point group operations.


The static configuration has the point symmetry D_3d.
 The point group associated with its full space group is D_6h.


Analysis of symmetry for dynamics (positions and initial velocities):
=====================================================================
 Subroutine PRICEL returns:
 Original cell was already a primitive cell.
 

 Routine SETGRP: Setting up the symmetry group for a 
 hexagonal supercell.


 Subroutine GETGRP returns: Found 24 space group operations
 (whereof 12 operations were pure point group operations)
 out of a pool of 24 trial point group operations.


The dynamic configuration has the point symmetry D_3d.
 The point group associated with its full space group is D_6h.


 Subroutine INISYM returns: Found 24 space group operations
 (whereof 12 operations are pure point group operations),
 and found     1 'primitive' translations

 
 
 KPOINTS: k-density: 7.0                          

Automatic generation of k-mesh.
Space group operators:
 irot       det(A)        alpha          n_x          n_y          n_z        tau_x        tau_y        tau_z
    1     1.000000     0.000001     1.000000     0.000000     0.000000     0.000000     0.000000     0.000000
    2    -1.000000     0.000001     1.000000     0.000000     0.000000     0.000000     0.000000     0.000000
    3     1.000000   120.000000     0.000000     0.000000    -1.000000     0.000000     0.000000     0.000000
    4    -1.000000   120.000000     0.000000     0.000000    -1.000000     0.000000     0.000000     0.000000
    5     1.000000   120.000000     0.000000     0.000000     1.000000     0.000000     0.000000     0.000000
    6    -1.000000   120.000000     0.000000     0.000000     1.000000     0.000000     0.000000     0.000000
    7     1.000000   179.999999     1.000000    -0.000000     0.000000     0.000000     0.000000     0.000000
    8    -1.000000   179.999999     1.000000    -0.000000     0.000000     0.000000     0.000000     0.000000
    9     1.000000   180.000000     0.500000    -0.866025     0.000000     0.000000     0.000000     0.000000
   10    -1.000000   180.000000     0.500000    -0.866025     0.000000     0.000000     0.000000     0.000000
   11     1.000000   180.000000    -0.500000    -0.866025     0.000000     0.000000     0.000000     0.000000
   12    -1.000000   180.000000    -0.500000    -0.866025     0.000000     0.000000     0.000000     0.000000
   13     1.000000    60.000000     0.000000     0.000000    -1.000000     0.000001     0.000000     0.500000
   14    -1.000000    60.000000     0.000000     0.000000    -1.000000     0.000001     0.000000     0.500000
   15     1.000000   180.000000     0.000000     0.000000     1.000000     0.000000     0.000000     0.500000
   16    -1.000000   180.000000     0.000000     0.000000     1.000000     0.000000     0.000000     0.500000
   17     1.000000    60.000000     0.000000     0.000000     1.000000     0.000000     0.000000     0.500000
   18    -1.000000    60.000000     0.000000     0.000000     1.000000     0.000000     0.000000     0.500000
   19     1.000000   179.999999     0.866025    -0.500000     0.000000     0.000000     0.000000     0.500000
   20    -1.000000   179.999999     0.866025    -0.500000     0.000000     0.000000     0.000000     0.500000
   21     1.000000   180.000000     0.000000     1.000000     0.000000     0.000001     0.000000     0.500000
   22    -1.000000   180.000000     0.000000     1.000000     0.000000     0.000001     0.000000     0.500000
   23     1.000000   179.999999     0.866025     0.500000     0.000000     0.000000     0.000000     0.500000
   24    -1.000000   179.999999     0.866025     0.500000     0.000000     0.000000     0.000000     0.500000
 
 Subroutine IBZKPT returns following result:
 ===========================================
 
 Found     48 irreducible k-points:
 
 Following reciprocal coordinates:
            Coordinates               Weight
  0.000000  0.000000  0.000000      1.000000
  0.071429  0.000000  0.000000      6.000000
  0.142857  0.000000  0.000000      6.000000
  0.214286 -0.000000  0.000000      6.000000
  0.285714  0.000000  0.000000      6.000000
  0.357143 -0.000000  0.000000      6.000000
  0.428571 -0.000000  0.000000      6.000000
  0.500000 -0.000000  0.000000      3.000000
  0.071429  0.071429  0.000000      6.000000
  0.142857  0.071429  0.000000     12.000000
  0.214286  0.071429  0.000000     12.000000
  0.285714  0.071429  0.000000     12.000000
  0.357143  0.071429  0.000000     12.000000
  0.428571  0.071429  0.000000     12.000000
  0.142857  0.142857  0.000000      6.000000
  0.214286  0.142857  0.000000     12.000000
  0.285714  0.142857  0.000000     12.000000
  0.357143  0.142857  0.000000     12.000000
  0.428571  0.142857  0.000000      6.000000
  0.214286  0.214286  0.000000      6.000000
  0.285714  0.214286  0.000000     12.000000
  0.357143  0.214286  0.000000     12.000000
  0.285714  0.285714  0.000000      6.000000
  0.357143  0.285714  0.000000      6.000000
  0.000000  0.000000  0.333333      2.000000
  0.071429  0.000000  0.333333     12.000000
  0.142857  0.000000  0.333333     12.000000
  0.214286 -0.000000  0.333333     12.000000
  0.285714  0.000000  0.333333     12.000000
  0.357143 -0.000000  0.333333     12.000000
  0.428571 -0.000000  0.333333     12.000000
  0.500000 -0.000000  0.333333      6.000000
  0.071429  0.071429  0.333333     12.000000
  0.142857  0.071429  0.333333     24.000000
  0.214286  0.071429  0.333333     24.000000
  0.285714  0.071429  0.333333     24.000000
  0.357143  0.071429  0.333333     24.000000
  0.428571  0.071429  0.333333     24.000000
  0.142857  0.142857  0.333333     12.000000
  0.214286  0.142857  0.333333     24.000000
  0.285714  0.142857  0.333333     24.000000
  0.357143  0.142857  0.333333     24.000000
  0.428571  0.142857  0.333333     12.000000
  0.214286  0.214286  0.333333     12.000000
  0.285714  0.214286  0.333333     24.000000
  0.357143  0.214286  0.333333     24.000000
  0.285714  0.285714  0.333333     12.000000
  0.357143  0.285714  0.333333     12.000000
 
 Following cartesian coordinates:
            Coordinates               Weight
  0.000000  0.000000  0.000000      1.000000
  0.022389  0.012926  0.000000      6.000000
  0.044778  0.025853  0.000000      6.000000
  0.067168  0.038779  0.000000      6.000000
  0.089557  0.051706  0.000000      6.000000
  0.111946  0.064632  0.000000      6.000000
  0.134335  0.077558  0.000000      6.000000
  0.156724  0.090485  0.000000      3.000000
  0.022389  0.038779  0.000000      6.000000
  0.044778  0.051706  0.000000     12.000000
  0.067168  0.064632  0.000000     12.000000
  0.089557  0.077558  0.000000     12.000000
  0.111946  0.090485  0.000000     12.000000
  0.134335  0.103411  0.000000     12.000000
  0.044778  0.077558  0.000000      6.000000
  0.067168  0.090485  0.000000     12.000000
  0.089557  0.103411  0.000000     12.000000
  0.111946  0.116338  0.000000     12.000000
  0.134335  0.129264  0.000000      6.000000
  0.067168  0.116338  0.000000      6.000000
  0.089557  0.129264  0.000000     12.000000
  0.111946  0.142190  0.000000     12.000000
  0.089557  0.155117  0.000000      6.000000
  0.111946  0.168043  0.000000      6.000000
  0.000000  0.000000  0.022403      2.000000
  0.022389  0.012926  0.022403     12.000000
  0.044778  0.025853  0.022403     12.000000
  0.067168  0.038779  0.022403     12.000000
  0.089557  0.051706  0.022403     12.000000
  0.111946  0.064632  0.022403     12.000000
  0.134335  0.077558  0.022403     12.000000
  0.156724  0.090485  0.022403      6.000000
  0.022389  0.038779  0.022403     12.000000
  0.044778  0.051706  0.022403     24.000000
  0.067168  0.064632  0.022403     24.000000
  0.089557  0.077558  0.022403     24.000000
  0.111946  0.090485  0.022403     24.000000
  0.134335  0.103411  0.022403     24.000000
  0.044778  0.077558  0.022403     12.000000
  0.067168  0.090485  0.022403     24.000000
  0.089557  0.103411  0.022403     24.000000
  0.111946  0.116338  0.022403     24.000000
  0.134335  0.129264  0.022403     12.000000
  0.067168  0.116338  0.022403     12.000000
  0.089557  0.129264  0.022403     24.000000
  0.111946  0.142190  0.022403     24.000000
  0.089557  0.155117  0.022403     12.000000
  0.111946  0.168043  0.022403     12.000000
 
 TETIRR: Found    511 inequivalent tetrahedra from     3528


--------------------------------------------------------------------------------------------------------




 Dimension of arrays:
   k-points           NKPTS =     48   k-points in BZ     NKDIM =     48   number of bands    NBANDS=     22
   number of dos      NEDOS =    301   number of ions     NIONS =      6
   non local maximal  LDIM  =      6   non local SUM 2l+1 LMDIM =     18
   total plane-waves  NPLWV =  25920
   max r-space proj   IRMAX =      1   max aug-charges    IRDMAX=  12887
   dimension x,y,z NGX =    18 NGY =   18 NGZ =   80
   dimension x,y,z NGXF=    36 NGYF=   36 NGZF=  160
   support grid    NGXF=    36 NGYF=   36 NGZF=  160
   ions per type =               2   4
   NGX,Y,Z   is equivalent  to a cutoff of   9.38,  9.38,  8.94 a.u.
   NGXF,Y,Z  is equivalent  to a cutoff of  18.76, 18.76, 17.88 a.u.

 SYSTEM =  unknown system                          
 POSCAR =  MoS2_mp-2815_computed                   

 Startparameter for this run:
   NWRITE =      2    write-flag & timer
   PREC   = normal    normal or accurate (medium, high low for compatibility)
   ISTART =      0    job   : 0-new  1-cont  2-samecut
   ICHARG =      2    charge: 1-file 2-atom 10-const
   ISPIN  =      1    spin polarized calculation?
   LNONCOLLINEAR =      F non collinear calculations
   LSORBIT =      F    spin-orbit coupling
   INIWAV =      1    electr: 0-lowe 1-rand  2-diag
   LASPH  =      F    aspherical Exc in radial PAW
   METAGGA=      F    non-selfconsistent MetaGGA calc.

 Electronic Relaxation 1
   ENCUT  =  450.0 eV  33.07 Ry    5.75 a.u.   5.52  5.52 25.74*2*pi/ulx,y,z
   ENINI  =  450.0     initial cutoff
   ENAUG  =  345.3 eV  augmentation charge cutoff
   NELM   =     60;   NELMIN=  4; NELMDL=  0     # of ELM steps 
   EDIFF  = 0.1E-04   stopping-criterion for ELM
   LREAL  =      F    real-space projection
   NLSPLINE    = F    spline interpolate recip. space projectors
   LCOMPAT=      F    compatible to vasp.4.4
   GGA_COMPAT  = T    GGA compatible to vasp.4.4-vasp.4.6
   LMAXPAW     = -100 max onsite density
   LMAXMIX     =    2 max onsite mixed and CHGCAR
   VOSKOWN=      0    Vosko Wilk Nusair interpolation
   ROPT   =    0.00000   0.00000
 Ionic relaxation
   EDIFFG = 0.1E-03   stopping-criterion for IOM
   NSW    =      0    number of steps for IOM
   NBLOCK =      1;   KBLOCK =      1    inner block; outer block 
   IBRION =     -1    ionic relax: 0-MD 1-quasi-New 2-CG
   NFREE  =      0    steps in history (QN), initial steepest desc. (CG)
   ISIF   =      2    stress and relaxation
   IWAVPR =     10    prediction:  0-non 1-charg 2-wave 3-comb
   ISYM   =      2    0-nonsym 1-usesym 2-fastsym
   LCORR  =      T    Harris-Foulkes like correction to forces

   POTIM  = 0.5000    time-step for ionic-motion
   TEIN   =    0.0    initial temperature
   TEBEG  =    0.0;   TEEND  =   0.0 temperature during run
   SMASS  =  -3.00    Nose mass-parameter (am)
   estimated Nose-frequenzy (Omega)   =  0.10E-29 period in steps =****** mass=  -0.233E-27a.u.
   SCALEE = 1.0000    scale energy and forces
   NPACO  =    256;   APACO  = 16.0  distance and # of slots for P.C.
   PSTRESS=    0.0 pullay stress

  Mass of Ions in am
   POMASS =  95.94 32.07
  Ionic Valenz
   ZVAL   =   6.00  6.00
  Atomic Wigner-Seitz radii
   RWIGS  =  -1.00 -1.00
  virtual crystal weights 
   VCA    =   1.00  1.00
   NELECT =      36.0000    total number of electrons
   NUPDOWN=      -1.0000    fix difference up-down

 DOS related values:
   EMIN   =  10.00;   EMAX   =-10.00  energy-range for DOS
   EFERMI =   0.00
   ISMEAR =    -5;   SIGMA  =   0.20  broadening in eV -4-tet -1-fermi 0-gaus

 Electronic relaxation 2 (details)
   IALGO  =     68    algorithm
   LDIAG  =      T    sub-space diagonalisation (order eigenvalues)
   LSUBROT=      F    optimize rotation matrix (better conditioning)
   TURBO    =      0    0=normal 1=particle mesh
   IRESTART =      0    0=no restart 2=restart with 2 vectors
   NREBOOT  =      0    no. of reboots
   NMIN     =      0    reboot dimension
   EREF     =   0.00    reference energy to select bands
   IMIX   =      4    mixing-type and parameters
     AMIX     =   0.40;   BMIX     =  1.00
     AMIX_MAG =   1.60;   BMIX_MAG =  1.00
     AMIN     =   0.10
     WC   =   100.;   INIMIX=   1;  MIXPRE=   1;  MAXMIX= -45

 Intra band minimization:
   WEIMIN = 0.0000     energy-eigenvalue tresh-hold
   EBREAK =  0.11E-06  absolut break condition
   DEPER  =   0.30     relativ break condition  

   TIME   =   0.40     timestep for ELM

  volume/ion in A,a.u.               =      21.86       147.51
  Fermi-wavevector in a.u.,A,eV,Ry     =   1.063943  2.010561 15.401453  1.131975
  Thomas-Fermi vector in A             =   2.199445
 
 Write flags
   LWAVE        =      F    write WAVECAR
   LDOWNSAMPLE  =      F    k-point downsampling of WAVECAR
   LCHARG       =      T    write CHGCAR
   LVTOT        =      F    write LOCPOT, total local potential
   LVHAR        =      F    write LOCPOT, Hartree potential only
   LELF         =      F    write electronic localiz. function (ELF)
   LORBIT       =      0    0 simple, 1 ext, 2 COOP (PROOUT), +10 PAW based schemes


 Dipole corrections
   LMONO  =      F    monopole corrections only (constant potential shift)
   LDIPOL =      F    correct potential (dipole corrections)
   IDIPOL =      0    1-x, 2-y, 3-z, 4-all directions 
   EPSILON=  1.0000000 bulk dielectric constant

 Exchange correlation treatment:
   GGA     =    --    GGA type
   LEXCH   =     8    internal setting for exchange type
   VOSKOWN=      0    Vosko Wilk Nusair interpolation
   LHFCALC =     F    Hartree Fock is set to
   LHFONE  =     F    Hartree Fock one center treatment
   AEXX    =    0.0000 exact exchange contribution

 Linear response parameters
   LEPSILON=     F    determine dielectric tensor
   LRPA    =     F    only Hartree local field effects (RPA)
   LNABLA  =     F    use nabla operator in PAW spheres
   LVEL    =     F    velocity operator in full k-point grid
   LINTERFAST=   F  fast interpolation
   KINTER  =     0    interpolate to denser k-point grid
   CSHIFT  =0.1000    complex shift for real part using Kramers Kronig
   OMEGAMAX=  -1.0    maximum frequency
   DEG_THRESHOLD= 0.2000000E-02 threshold for treating states as degnerate
   RTIME   =   -0.100 relaxation time in fs
  (WPLASMAI=    0.000 imaginary part of plasma frequency in eV, 0.658/RTIME)
   DFIELD  = 0.0000000 0.0000000 0.0000000 field for delta impulse in time
 
 Orbital magnetization related:
   ORBITALMAG=     F  switch on orbital magnetization
   LCHIMAG   =     F  perturbation theory with respect to B field
   DQ        =  0.001000  dq finite difference perturbation B field
   LLRAUG    =     F  two centre corrections for induced B field



--------------------------------------------------------------------------------------------------------


 Static calculation
 charge density and potential will be updated during run
 non-spin polarized calculation
 RMM-DIIS sequential band-by-band and
  variant of blocked Davidson during initial phase
 perform sub-space diagonalisation
    before iterative eigenvector-optimisation
 modified Broyden-mixing scheme, WC =      100.0
 initial mixing is a Kerker type mixing with AMIX =  0.4000 and BMIX =      1.0000
 Hartree-type preconditioning will be used
 using additional bands            4
 reciprocal scheme for non local part
 use partial core corrections
 calculate Harris-corrections to forces 
   (improved forces if not selfconsistent)
 use gradient corrections 
 use of overlap-Matrix (Vanderbilt PP)
 Fermi weights with tetrahedron method with Bloechl corrections


--------------------------------------------------------------------------------------------------------


  energy-cutoff  :      450.00
  volume of cell :      131.15
      direct lattice vectors                 reciprocal lattice vectors
     3.190315730  0.000000000  0.000000000     0.313448600  0.180969634  0.000000000
    -1.595157865  2.762894468  0.000000000     0.000000000  0.361939267  0.000000000
     0.000000000  0.000000000 14.879004300     0.000000000  0.000000000  0.067208798

  length of vectors
     3.190315730  3.190315730 14.879004300     0.361939267  0.361939267  0.067208798


 
 k-points in units of 2pi/SCALE and weight: k-density: 7.0                          
   0.00000000  0.00000000  0.00000000       0.002
   0.02238919  0.01292640  0.00000000       0.010
   0.04477837  0.02585280  0.00000000       0.010
   0.06716756  0.03877921  0.00000000       0.010
   0.08955674  0.05170561  0.00000000       0.010
   0.11194593  0.06463201  0.00000000       0.010
   0.13433511  0.07755841  0.00000000       0.010
   0.15672430  0.09048482  0.00000000       0.005
   0.02238919  0.03877921  0.00000000       0.010
   0.04477837  0.05170561  0.00000000       0.020
   0.06716756  0.06463201  0.00000000       0.020
   0.08955674  0.07755841  0.00000000       0.020
   0.11194593  0.09048482  0.00000000       0.020
   0.13433511  0.10341122  0.00000000       0.020
   0.04477837  0.07755841  0.00000000       0.010
   0.06716756  0.09048482  0.00000000       0.020
   0.08955674  0.10341122  0.00000000       0.020
   0.11194593  0.11633762  0.00000000       0.020
   0.13433511  0.12926402  0.00000000       0.010
   0.06716756  0.11633762  0.00000000       0.010
   0.08955674  0.12926402  0.00000000       0.020
   0.11194593  0.14219043  0.00000000       0.020
   0.08955674  0.15511683  0.00000000       0.010
   0.11194593  0.16804323  0.00000000       0.010
   0.00000000  0.00000000  0.02240293       0.003
   0.02238919  0.01292640  0.02240293       0.020
   0.04477837  0.02585280  0.02240293       0.020
   0.06716756  0.03877921  0.02240293       0.020
   0.08955674  0.05170561  0.02240293       0.020
   0.11194593  0.06463201  0.02240293       0.020
   0.13433511  0.07755841  0.02240293       0.020
   0.15672430  0.09048482  0.02240293       0.010
   0.02238919  0.03877921  0.02240293       0.020
   0.04477837  0.05170561  0.02240293       0.041
   0.06716756  0.06463201  0.02240293       0.041
   0.08955674  0.07755841  0.02240293       0.041
   0.11194593  0.09048482  0.02240293       0.041
   0.13433511  0.10341122  0.02240293       0.041
   0.04477837  0.07755841  0.02240293       0.020
   0.06716756  0.09048482  0.02240293       0.041
   0.08955674  0.10341122  0.02240293       0.041
   0.11194593  0.11633762  0.02240293       0.041
   0.13433511  0.12926402  0.02240293       0.020
   0.06716756  0.11633762  0.02240293       0.020
   0.08955674  0.12926402  0.02240293       0.041
   0.11194593  0.14219043  0.02240293       0.041
   0.08955674  0.15511683  0.02240293       0.020
   0.11194593  0.16804323  0.02240293       0.020
 
 k-points in reciprocal lattice and weights: k-density: 7.0                          
   0.00000000  0.00000000  0.00000000       0.002
   0.07142857  0.00000000  0.00000000       0.010
   0.14285714  0.00000000  0.00000000       0.010
   0.21428571 -0.00000000  0.00000000       0.010
   0.28571429  0.00000000  0.00000000       0.010
   0.35714286 -0.00000000  0.00000000       0.010
   0.42857143 -0.00000000  0.00000000       0.010
   0.50000000 -0.00000000  0.00000000       0.005
   0.07142857  0.07142857  0.00000000       0.010
   0.14285714  0.07142857  0.00000000       0.020
   0.21428571  0.07142857  0.00000000       0.020
   0.28571429  0.07142857  0.00000000       0.020
   0.35714286  0.07142857  0.00000000       0.020
   0.42857143  0.07142857  0.00000000       0.020
   0.14285714  0.14285714  0.00000000       0.010
   0.21428571  0.14285714  0.00000000       0.020
   0.28571429  0.14285714  0.00000000       0.020
   0.35714286  0.14285714  0.00000000       0.020
   0.42857143  0.14285714  0.00000000       0.010
   0.21428571  0.21428571  0.00000000       0.010
   0.28571429  0.21428571  0.00000000       0.020
   0.35714286  0.21428571  0.00000000       0.020
   0.28571429  0.28571429  0.00000000       0.010
   0.35714286  0.28571429  0.00000000       0.010
   0.00000000  0.00000000  0.33333333       0.003
   0.07142857  0.00000000  0.33333333       0.020
   0.14285714  0.00000000  0.33333333       0.020
   0.21428571 -0.00000000  0.33333333       0.020
   0.28571429  0.00000000  0.33333333       0.020
   0.35714286 -0.00000000  0.33333333       0.020
   0.42857143 -0.00000000  0.33333333       0.020
   0.50000000 -0.00000000  0.33333333       0.010
   0.07142857  0.07142857  0.33333333       0.020
   0.14285714  0.07142857  0.33333333       0.041
   0.21428571  0.07142857  0.33333333       0.041
   0.28571429  0.07142857  0.33333333       0.041
   0.35714286  0.07142857  0.33333333       0.041
   0.42857143  0.07142857  0.33333333       0.041
   0.14285714  0.14285714  0.33333333       0.020
   0.21428571  0.14285714  0.33333333       0.041
   0.28571429  0.14285714  0.33333333       0.041
   0.35714286  0.14285714  0.33333333       0.041
   0.42857143  0.14285714  0.33333333       0.020
   0.21428571  0.21428571  0.33333333       0.020
   0.28571429  0.21428571  0.33333333       0.041
   0.35714286  0.21428571  0.33333333       0.041
   0.28571429  0.28571429  0.33333333       0.020
   0.35714286  0.28571429  0.33333333       0.020
 
 position of ions in fractional coordinates (direct lattice) 
   0.33333300  0.66666700  0.25000000
   0.66666700  0.33333300  0.75000000
   0.33333300  0.66666700  0.85517400
   0.66666700  0.33333300  0.14482600
   0.66666600  0.33333300  0.35517400
   0.33333400  0.66666700  0.64482600
 
 position of ions in cartesian coordinates  (Angst):
  -0.00000160  1.84193057  3.71975108
   1.59515946  0.92096390 11.15925323
  -0.00000160  1.84193057 12.72413762
   1.59515946  0.92096390  2.15486668
   1.59515627  0.92096390  5.28463547
   0.00000160  1.84193057  9.59436883
 


--------------------------------------------------------------------------------------------------------


 k-point  1 :   0.0000 0.0000 0.0000  plane waves:    2895
 k-point  2 :   0.0714 0.0000 0.0000  plane waves:    2895
 k-point  3 :   0.1429 0.0000 0.0000  plane waves:    2873
 k-point  4 :   0.2143-0.0000 0.0000  plane waves:    2853
 k-point  5 :   0.2857 0.0000 0.0000  plane waves:    2860
 k-point  6 :   0.3571-0.0000 0.0000  plane waves:    2832
 k-point  7 :   0.4286-0.0000 0.0000  plane waves:    2812
 k-point  8 :   0.5000-0.0000 0.0000  plane waves:    2784
 k-point  9 :   0.0714 0.0714 0.0000  plane waves:    2891
 k-point 10 :   0.1429 0.0714 0.0000  plane waves:    2859
 k-point 11 :   0.2143 0.0714 0.0000  plane waves:    2855
 k-point 12 :   0.2857 0.0714 0.0000  plane waves:    2839
 k-point 13 :   0.3571 0.0714 0.0000  plane waves:    2832
 k-point 14 :   0.4286 0.0714 0.0000  plane waves:    2812
 k-point 15 :   0.1429 0.1429 0.0000  plane waves:    2849
 k-point 16 :   0.2143 0.1429 0.0000  plane waves:    2851
 k-point 17 :   0.2857 0.1429 0.0000  plane waves:    2857
 k-point 18 :   0.3571 0.1429 0.0000  plane waves:    2821
 k-point 19 :   0.4286 0.1429 0.0000  plane waves:    2822
 k-point 20 :   0.2143 0.2143 0.0000  plane waves:    2851
 k-point 21 :   0.2857 0.2143 0.0000  plane waves:    2830
 k-point 22 :   0.3571 0.2143 0.0000  plane waves:    2836
 k-point 23 :   0.2857 0.2857 0.0000  plane waves:    2844
 k-point 24 :   0.3571 0.2857 0.0000  plane waves:    2840
 k-point 25 :   0.0000 0.0000 0.3333  plane waves:    2890
 k-point 26 :   0.0714 0.0000 0.3333  plane waves:    2890
 k-point 27 :   0.1429 0.0000 0.3333  plane waves:    2880
 k-point 28 :   0.2143-0.0000 0.3333  plane waves:    2861
 k-point 29 :   0.2857 0.0000 0.3333  plane waves:    2843
 k-point 30 :   0.3571-0.0000 0.3333  plane waves:    2836
 k-point 31 :   0.4286-0.0000 0.3333  plane waves:    2822
 k-point 32 :   0.5000-0.0000 0.3333  plane waves:    2814
 k-point 33 :   0.0714 0.0714 0.3333  plane waves:    2883
 k-point 34 :   0.1429 0.0714 0.3333  plane waves:    2873
 k-point 35 :   0.2143 0.0714 0.3333  plane waves:    2853
 k-point 36 :   0.2857 0.0714 0.3333  plane waves:    2846
 k-point 37 :   0.3571 0.0714 0.3333  plane waves:    2825
 k-point 38 :   0.4286 0.0714 0.3333  plane waves:    2822
 k-point 39 :   0.1429 0.1429 0.3333  plane waves:    2848
 k-point 40 :   0.2143 0.1429 0.3333  plane waves:    2846
 k-point 41 :   0.2857 0.1429 0.3333  plane waves:    2835
 k-point 42 :   0.3571 0.1429 0.3333  plane waves:    2824
 k-point 43 :   0.4286 0.1429 0.3333  plane waves:    2813
 k-point 44 :   0.2143 0.2143 0.3333  plane waves:    2843
 k-point 45 :   0.2857 0.2143 0.3333  plane waves:    2839
 k-point 46 :   0.3571 0.2143 0.3333  plane waves:    2827
 k-point 47 :   0.2857 0.2857 0.3333  plane waves:    2839
 k-point 48 :   0.3571 0.2857 0.3333  plane waves:    2842

 maximum and minimum number of plane-waves per node :      1468     1385

 maximum number of plane-waves:      2895
 maximum index in each direction: 
   IXMAX=    5   IYMAX=    5   IZMAX=   25
   IXMIN=   -6   IYMIN=   -5   IZMIN=  -26


 parallel 3D FFT for wavefunctions:
    minimum data exchange during FFTs selected (reduces bandwidth)
 parallel 3D FFT for charge:
    minimum data exchange during FFTs selected (reduces bandwidth)


 total amount of memory used by VASP MPI-rank0    68779. kBytes
=======================================================================

   base      :      30000. kBytes
   nonl-proj :      20434. kBytes
   fftplans  :       2162. kBytes
   grid      :       3449. kBytes
   one-center:         46. kBytes
   wavefun   :      12688. kBytes
 
     INWAV:  cpu time    0.0000: real time    0.0000
 Broyden mixing: mesh for mixing (old mesh)
   NGX = 11   NGY = 11   NGZ = 51
  (NGX  = 36   NGY  = 36   NGZ  =160)
  gives a total of   6171 points

 initial charge density was supplied:
 charge density of overlapping atoms calculated
 number of electron      36.0000000 magnetization 
 keeping initial charge density in first step


--------------------------------------------------------------------------------------------------------


 Maximum index for augmentation-charges         3021 (set IRDMAX)


--------------------------------------------------------------------------------------------------------


 First call to EWALD:  gamma=   0.349
 Maximum number of real-space cells 5x 5x 1
 Maximum number of reciprocal cells 2x 2x 7

    FEWALD:  cpu time    0.0010: real time    0.0015


--------------------------------------- Iteration      1(   1)  ---------------------------------------


    POTLOK:  cpu time    0.0320: real time    0.0631
    SETDIJ:  cpu time    0.0050: real time    0.0053
     EDDAV:  cpu time    1.1008: real time    1.1058
 BZINTS: Fermi energy: 14.499486; 36.000000 electrons
         Band energy: 167.142574;  BLOECHL correction: -0.210007
       DOS:  cpu time    0.0180: real time    0.0187
    --------------------------------------------
      LOOP:  cpu time    1.1558: real time    1.1928

 eigenvalue-minimisations  :  2112
 total energy-change (2. order) : 0.2003850E+03  (-0.1468648E+04)
 number of electron      36.0000000 magnetization 
 augmentation part       36.0000000 magnetization 

 Free energy of the ion-electron system (eV)
  ---------------------------------------------------
  alpha Z        PSCENC =        90.42577596
  Ewald energy   TEWEN  =     -1146.88905665
  -Hartree energ DENC   =      -535.10238363
  -exchange      EXHF   =         0.00000000
  -V(xc)+E(xc)   XCENC  =       -72.59368150
  PAW double counting   =       813.77302396     -658.68146406
  entropy T*S    EENTRO =         0.00000000
  eigenvalues    EBANDS =       167.14257376
  atomic energy  EATOM  =      1542.31022798
  Solvation  Ediel_sol  =         0.00000000
  ---------------------------------------------------
  free energy    TOTEN  =       200.38501584 eV

  energy without entropy =      200.38501584  energy(sigma->0) =      200.38501584


--------------------------------------------------------------------------------------------------------




--------------------------------------- Iteration      1(   2)  ---------------------------------------


     EDDAV:  cpu time    1.3878: real time    1.3908
 BZINTS: Fermi energy:  5.543587; 36.000000 electrons
         Band energy: -61.701418;  BLOECHL correction:  0.000000
       DOS:  cpu time    0.0030: real time    0.0039
    --------------------------------------------
      LOOP:  cpu time    1.3908: real time    1.3947

 eigenvalue-minimisations  :  2868
 total energy-change (2. order) :-0.2288440E+03  (-0.2225778E+03)
 number of electron      36.0000000 magnetization 
 augmentation part       36.0000000 magnetization 

 Free energy of the ion-electron system (eV)
  ---------------------------------------------------
  alpha Z        PSCENC =        90.42577596
  Ewald energy   TEWEN  =     -1146.88905665
  -Hartree energ DENC   =      -535.10238363
  -exchange      EXHF   =         0.00000000
  -V(xc)+E(xc)   XCENC  =       -72.59368150
  PAW double counting   =       813.77302396     -658.68146406
  entropy T*S    EENTRO =         0.00000000
  eigenvalues    EBANDS =       -61.70141818
  atomic energy  EATOM  =      1542.31022798
  Solvation  Ediel_sol  =         0.00000000
  ---------------------------------------------------
  free energy    TOTEN  =       -28.45897610 eV

  energy without entropy =      -28.45897610  energy(sigma->0) =      -28.45897610


--------------------------------------------------------------------------------------------------------




--------------------------------------- Iteration      1(   3)  ---------------------------------------


     EDDAV:  cpu time    1.3768: real time    1.3792
 BZINTS: Fermi energy:  3.893855; 36.000000 electrons
         Band energy: -79.500554;  BLOECHL correction:  0.000000
       DOS:  cpu time    0.0030: real time    0.0036
    --------------------------------------------
      LOOP:  cpu time    1.3798: real time    1.3828

 eigenvalue-minimisations  :  2820
 total energy-change (2. order) :-0.1779914E+02  (-0.1769716E+02)
 number of electron      36.0000000 magnetization 
 augmentation part       36.0000000 magnetization 

 Free energy of the ion-electron system (eV)
  ---------------------------------------------------
  alpha Z        PSCENC =        90.42577596
  Ewald energy   TEWEN  =     -1146.88905665
  -Hartree energ DENC   =      -535.10238363
  -exchange      EXHF   =         0.00000000
  -V(xc)+E(xc)   XCENC  =       -72.59368150
  PAW double counting   =       813.77302396     -658.68146406
  entropy T*S    EENTRO =         0.00000000
  eigenvalues    EBANDS =       -79.50055407
  atomic energy  EATOM  =      1542.31022798
  Solvation  Ediel_sol  =         0.00000000
  ---------------------------------------------------
  free energy    TOTEN  =       -46.25811199 eV

  energy without entropy =      -46.25811199  energy(sigma->0) =      -46.25811199


--------------------------------------------------------------------------------------------------------




--------------------------------------- Iteration      1(   4)  ---------------------------------------


     EDDAV:  cpu time    1.4138: real time    1.4271
 BZINTS: Fermi energy:  3.885810; 36.000000 electrons
         Band energy: -80.050098;  BLOECHL correction:  0.000000
       DOS:  cpu time    0.0040: real time    0.0041
    --------------------------------------------
      LOOP:  cpu time    1.4178: real time    1.4312

 eigenvalue-minimisations  :  2956
 total energy-change (2. order) :-0.5495442E+00  (-0.5488189E+00)
 number of electron      36.0000000 magnetization 
 augmentation part       36.0000000 magnetization 

 Free energy of the ion-electron system (eV)
  ---------------------------------------------------
  alpha Z        PSCENC =        90.42577596
  Ewald energy   TEWEN  =     -1146.88905665
  -Hartree energ DENC   =      -535.10238363
  -exchange      EXHF   =         0.00000000
  -V(xc)+E(xc)   XCENC  =       -72.59368150
  PAW double counting   =       813.77302396     -658.68146406
  entropy T*S    EENTRO =         0.00000000
  eigenvalues    EBANDS =       -80.05009829
  atomic energy  EATOM  =      1542.31022798
  Solvation  Ediel_sol  =         0.00000000
  ---------------------------------------------------
  free energy    TOTEN  =       -46.80765621 eV

  energy without entropy =      -46.80765621  energy(sigma->0) =      -46.80765621


--------------------------------------------------------------------------------------------------------




--------------------------------------- Iteration      1(   5)  ---------------------------------------


     EDDAV:  cpu time    1.3648: real time    1.3664
 BZINTS: Fermi energy:  3.886523; 36.000000 electrons
         Band energy: -80.062808;  BLOECHL correction:  0.000000
       DOS:  cpu time    0.0040: real time    0.0041
    CHARGE:  cpu time    0.0830: real time    0.0827
    MIXING:  cpu time    0.0010: real time    0.0011
    --------------------------------------------
      LOOP:  cpu time    1.4528: real time    1.4543

 eigenvalue-minimisations  :  2834
 total energy-change (2. order) :-0.1270979E-01  (-0.1270624E-01)
 number of electron      36.0000009 magnetization 
 augmentation part       -1.8905818 magnetization 

 Broyden mixing:
  rms(total) = 0.97335E+00    rms(broyden)= 0.97334E+00
  rms(prec ) = 0.12179E+01
  weight for this iteration     100.00

 Free energy of the ion-electron system (eV)
  ---------------------------------------------------
  alpha Z        PSCENC =        90.42577596
  Ewald energy   TEWEN  =     -1146.88905665
  -Hartree energ DENC   =      -535.10238363
  -exchange      EXHF   =         0.00000000
  -V(xc)+E(xc)   XCENC  =       -72.59368150
  PAW double counting   =       813.77302396     -658.68146406
  entropy T*S    EENTRO =         0.00000000
  eigenvalues    EBANDS =       -80.06280808
  atomic energy  EATOM  =      1542.31022798
  Solvation  Ediel_sol  =         0.00000000
  ---------------------------------------------------
  free energy    TOTEN  =       -46.82036600 eV

  energy without entropy =      -46.82036600  energy(sigma->0) =      -46.82036600


--------------------------------------------------------------------------------------------------------




--------------------------------------- Iteration      1(   6)  ---------------------------------------


    POTLOK:  cpu time    0.0270: real time    0.0303
    SETDIJ:  cpu time    0.0050: real time    0.0045
    EDDIAG:  cpu time    0.2250: real time    0.2253
  RMM-DIIS:  cpu time    0.9169: real time    0.9164
    ORTHCH:  cpu time    0.0250: real time    0.0249
 BZINTS: Fermi energy:  2.878805; 36.000000 electrons
         Band energy: -79.148723;  BLOECHL correction:  0.000000
       DOS:  cpu time    0.0040: real time    0.0041
    CHARGE:  cpu time    0.0820: real time    0.0824
    MIXING:  cpu time    0.0010: real time    0.0009
    --------------------------------------------
      LOOP:  cpu time    1.2858: real time    1.2887

 eigenvalue-minimisations  :  2349
 total energy-change (2. order) : 0.2398805E+01  (-0.2419192E+01)
 number of electron      36.0000006 magnetization 
 augmentation part       -0.8664987 magnetization 

 Broyden mixing:
  rms(total) = 0.33451E+00    rms(broyden)= 0.33450E+00
  rms(prec ) = 0.48884E+00
  weight for this iteration     100.00

 eigenvalues of (default mixing * dielectric matrix)
  average eigenvalue GAMMA=   0.8777
  0.8777

 Free energy of the ion-electron system (eV)
  ---------------------------------------------------
  alpha Z        PSCENC =        90.42577596
  Ewald energy   TEWEN  =     -1146.88905665
  -Hartree energ DENC   =      -533.60714203
  -exchange      EXHF   =         0.00000000
  -V(xc)+E(xc)   XCENC  =       -70.82523693
  PAW double counting   =       847.84976389     -694.53717025
  entropy T*S    EENTRO =         0.00000000
  eigenvalues    EBANDS =       -79.14872265
  atomic energy  EATOM  =      1542.31022798
  Solvation  Ediel_sol  =         0.00000000
  ---------------------------------------------------
  free energy    TOTEN  =       -44.42156068 eV

  energy without entropy =      -44.42156068  energy(sigma->0) =      -44.42156068


--------------------------------------------------------------------------------------------------------




--------------------------------------- Iteration      1(   7)  ---------------------------------------


    POTLOK:  cpu time    0.0280: real time    0.0307
    SETDIJ:  cpu time    0.0050: real time    0.0045
    EDDIAG:  cpu time    0.2240: real time    0.2244
  RMM-DIIS:  cpu time    0.9089: real time    0.9083
    ORTHCH:  cpu time    0.0240: real time    0.0249
 BZINTS: Fermi energy:  3.203585; 36.000000 electrons
         Band energy: -73.429649;  BLOECHL correction:  0.000000
       DOS:  cpu time    0.0040: real time    0.0041
    CHARGE:  cpu time    0.0820: real time    0.0821
    MIXING:  cpu time    0.0020: real time    0.0009
    --------------------------------------------
      LOOP:  cpu time    1.2778: real time    1.2799

 eigenvalue-minimisations  :  2319
 total energy-change (2. order) : 0.7271436E+00  (-0.1896974E+00)
 number of electron      36.0000007 magnetization 
 augmentation part       -1.1105384 magnetization 

 Broyden mixing:
  rms(total) = 0.17802E+00    rms(broyden)= 0.17802E+00
  rms(prec ) = 0.21295E+00
  weight for this iteration     100.00

 eigenvalues of (default mixing * dielectric matrix)
  average eigenvalue GAMMA=   1.4128
  0.7643  2.0613

 Free energy of the ion-electron system (eV)
  ---------------------------------------------------
  alpha Z        PSCENC =        90.42577596
  Ewald energy   TEWEN  =     -1146.88905665
  -Hartree energ DENC   =      -537.91273092
  -exchange      EXHF   =         0.00000000
  -V(xc)+E(xc)   XCENC  =       -71.01109751
  PAW double counting   =       881.25015307     -728.43804038
  entropy T*S    EENTRO =         0.00000000
  eigenvalues    EBANDS =       -73.42964862
  atomic energy  EATOM  =      1542.31022798
  Solvation  Ediel_sol  =         0.00000000
  ---------------------------------------------------
  free energy    TOTEN  =       -43.69441706 eV

  energy without entropy =      -43.69441706  energy(sigma->0) =      -43.69441706


--------------------------------------------------------------------------------------------------------




--------------------------------------- Iteration      1(   8)  ---------------------------------------


    POTLOK:  cpu time    0.0280: real time    0.0312
    SETDIJ:  cpu time    0.0050: real time    0.0045
    EDDIAG:  cpu time    0.2240: real time    0.2244
  RMM-DIIS:  cpu time    0.9439: real time    0.9437
    ORTHCH:  cpu time    0.0250: real time    0.0251
 BZINTS: Fermi energy:  3.328327; 36.000000 electrons
         Band energy: -68.464385;  BLOECHL correction:  0.000000
       DOS:  cpu time    0.0030: real time    0.0041
    CHARGE:  cpu time    0.0830: real time    0.0824
    MIXING:  cpu time    0.0020: real time    0.0015
    --------------------------------------------
      LOOP:  cpu time    1.3138: real time    1.3169

 eigenvalue-minimisations  :  2431
 total energy-change (2. order) : 0.6219493E-01  (-0.9079619E-01)
 number of electron      36.0000007 magnetization 
 augmentation part       -1.1716020 magnetization 

 Broyden mixing:
  rms(total) = 0.84326E-01    rms(broyden)= 0.84325E-01
  rms(prec ) = 0.11293E+00
  weight for this iteration     100.00

 eigenvalues of (default mixing * dielectric matrix)
  average eigenvalue GAMMA=   1.4834
  2.1129  1.5089  0.8285

 Free energy of the ion-electron system (eV)
  ---------------------------------------------------
  alpha Z        PSCENC =        90.42577596
  Ewald energy   TEWEN  =     -1146.88905665
  -Hartree energ DENC   =      -542.20837643
  -exchange      EXHF   =         0.00000000
  -V(xc)+E(xc)   XCENC  =       -70.63321679
  PAW double counting   =       931.86841628     -780.04160744
  entropy T*S    EENTRO =         0.00000000
  eigenvalues    EBANDS =       -68.46438505
  atomic energy  EATOM  =      1542.31022798
  Solvation  Ediel_sol  =         0.00000000
  ---------------------------------------------------
  free energy    TOTEN  =       -43.63222213 eV

  energy without entropy =      -43.63222213  energy(sigma->0) =      -43.63222213


--------------------------------------------------------------------------------------------------------




--------------------------------------- Iteration      1(   9)  ---------------------------------------


    POTLOK:  cpu time    0.0270: real time    0.0301
    SETDIJ:  cpu time    0.0050: real time    0.0045
    EDDIAG:  cpu time    0.2240: real time    0.2243
  RMM-DIIS:  cpu time    0.9749: real time    0.9744
    ORTHCH:  cpu time    0.0240: real time    0.0249
 BZINTS: Fermi energy:  3.225773; 36.000000 electrons
         Band energy: -68.949181;  BLOECHL correction:  0.000000
       DOS:  cpu time    0.0040: real time    0.0040
    CHARGE:  cpu time    0.0820: real time    0.0820
    MIXING:  cpu time    0.0020: real time    0.0010
    --------------------------------------------
      LOOP:  cpu time    1.3428: real time    1.3452

 eigenvalue-minimisations  :  2492
 total energy-change (2. order) : 0.9083477E-02  (-0.3185041E-01)
 number of electron      36.0000007 magnetization 
 augmentation part       -1.0419688 magnetization 

 Broyden mixing:
  rms(total) = 0.59605E-01    rms(broyden)= 0.59604E-01
  rms(prec ) = 0.83220E-01
  weight for this iteration     100.00

 eigenvalues of (default mixing * dielectric matrix)
  average eigenvalue GAMMA=   1.5235
  2.1469  2.1469  0.9002  0.9002

 Free energy of the ion-electron system (eV)
  ---------------------------------------------------
  alpha Z        PSCENC =        90.42577596
  Ewald energy   TEWEN  =     -1146.88905665
  -Hartree energ DENC   =      -541.80565761
  -exchange      EXHF   =         0.00000000
  -V(xc)+E(xc)   XCENC  =       -70.37080832
  PAW double counting   =       938.33277797     -786.67721731
  entropy T*S    EENTRO =         0.00000000
  eigenvalues    EBANDS =       -68.94918068
  atomic energy  EATOM  =      1542.31022798
  Solvation  Ediel_sol  =         0.00000000
  ---------------------------------------------------
  free energy    TOTEN  =       -43.62313865 eV

  energy without entropy =      -43.62313865  energy(sigma->0) =      -43.62313865


--------------------------------------------------------------------------------------------------------




--------------------------------------- Iteration      1(  10)  ---------------------------------------


    POTLOK:  cpu time    0.0280: real time    0.0297
    SETDIJ:  cpu time    0.0050: real time    0.0045
    EDDIAG:  cpu time    0.2240: real time    0.2242
  RMM-DIIS:  cpu time    0.9819: real time    0.9822
    ORTHCH:  cpu time    0.0250: real time    0.0249
 BZINTS: Fermi energy:  3.307670; 36.000000 electrons
         Band energy: -68.029060;  BLOECHL correction:  0.000000
       DOS:  cpu time    0.0030: real time    0.0036
    CHARGE:  cpu time    0.0830: real time    0.0821
    MIXING:  cpu time    0.0010: real time    0.0011
    --------------------------------------------
      LOOP:  cpu time    1.3508: real time    1.3521

 eigenvalue-minimisations  :  2512
 total energy-change (2. order) : 0.1767437E-01  (-0.7020464E-02)
 number of electron      36.0000007 magnetization 
 augmentation part       -1.1051601 magnetization 

 Broyden mixing:
  rms(total) = 0.73673E-02    rms(broyden)= 0.73667E-02
  rms(prec ) = 0.94036E-02
  weight for this iteration     100.00

 eigenvalues of (default mixing * dielectric matrix)
  average eigenvalue GAMMA=   1.4288
  2.4430  1.6558  0.8877  0.8877  1.2696

 Free energy of the ion-electron system (eV)
  ---------------------------------------------------
  alpha Z        PSCENC =        90.42577596
  Ewald energy   TEWEN  =     -1146.88905665
  -Hartree energ DENC   =      -542.61008192
  -exchange      EXHF   =         0.00000000
  -V(xc)+E(xc)   XCENC  =       -70.42761792
  PAW double counting   =       944.33220802     -792.71785982
  entropy T*S    EENTRO =         0.00000000
  eigenvalues    EBANDS =       -68.02905994
  atomic energy  EATOM  =      1542.31022798
  Solvation  Ediel_sol  =         0.00000000
  ---------------------------------------------------
  free energy    TOTEN  =       -43.60546429 eV

  energy without entropy =      -43.60546429  energy(sigma->0) =      -43.60546429


--------------------------------------------------------------------------------------------------------




--------------------------------------- Iteration      1(  11)  ---------------------------------------


    POTLOK:  cpu time    0.0270: real time    0.0303
    SETDIJ:  cpu time    0.0050: real time    0.0045
    EDDIAG:  cpu time    0.2240: real time    0.2247
  RMM-DIIS:  cpu time    1.0428: real time    1.0415
    ORTHCH:  cpu time    0.0250: real time    0.0251
 BZINTS: Fermi energy:  3.302996; 36.000000 electrons
         Band energy: -67.894089;  BLOECHL correction:  0.000000
       DOS:  cpu time    0.0030: real time    0.0036
    CHARGE:  cpu time    0.0820: real time    0.0821
    MIXING:  cpu time    0.0020: real time    0.0011
    --------------------------------------------
      LOOP:  cpu time    1.4108: real time    1.4129

 eigenvalue-minimisations  :  2719
 total energy-change (2. order) :-0.1408866E-03  (-0.3443415E-03)
 number of electron      36.0000007 magnetization 
 augmentation part       -1.0996518 magnetization 

 Broyden mixing:
  rms(total) = 0.30367E-02    rms(broyden)= 0.30367E-02
  rms(prec ) = 0.37265E-02
  weight for this iteration     100.00

 eigenvalues of (default mixing * dielectric matrix)
  average eigenvalue GAMMA=   1.6419
  2.8161  2.4772  1.8283  0.8911  0.8911  0.9477

 Free energy of the ion-electron system (eV)
  ---------------------------------------------------
  alpha Z        PSCENC =        90.42577596
  Ewald energy   TEWEN  =     -1146.88905665
  -Hartree energ DENC   =      -542.76291081
  -exchange      EXHF   =         0.00000000
  -V(xc)+E(xc)   XCENC  =       -70.40126233
  PAW double counting   =       944.68090562     -793.07519547
  entropy T*S    EENTRO =         0.00000000
  eigenvalues    EBANDS =       -67.89408948
  atomic energy  EATOM  =      1542.31022798
  Solvation  Ediel_sol  =         0.00000000
  ---------------------------------------------------
  free energy    TOTEN  =       -43.60560517 eV

  energy without entropy =      -43.60560517  energy(sigma->0) =      -43.60560517


--------------------------------------------------------------------------------------------------------




--------------------------------------- Iteration      1(  12)  ---------------------------------------


    POTLOK:  cpu time    0.0270: real time    0.0305
    SETDIJ:  cpu time    0.0050: real time    0.0045
    EDDIAG:  cpu time    0.2240: real time    0.2246
  RMM-DIIS:  cpu time    1.0418: real time    1.0415
    ORTHCH:  cpu time    0.0250: real time    0.0250
 BZINTS: Fermi energy:  3.308035; 36.000000 electrons
         Band energy: -67.712055;  BLOECHL correction:  0.000000
       DOS:  cpu time    0.0030: real time    0.0036
    CHARGE:  cpu time    0.0820: real time    0.0822
    MIXING:  cpu time    0.0020: real time    0.0012
    --------------------------------------------
      LOOP:  cpu time    1.4098: real time    1.4130

 eigenvalue-minimisations  :  2715
 total energy-change (2. order) :-0.1355197E-03  (-0.5312009E-04)
 number of electron      36.0000007 magnetization 
 augmentation part       -1.0994679 magnetization 

 Broyden mixing:
  rms(total) = 0.12090E-02    rms(broyden)= 0.12089E-02
  rms(prec ) = 0.14467E-02
  weight for this iteration     100.00

 eigenvalues of (default mixing * dielectric matrix)
  average eigenvalue GAMMA=   1.6030
  2.8980  2.3847  1.6168  1.6168  0.8901  0.8901  0.9244

 Free energy of the ion-electron system (eV)
  ---------------------------------------------------
  alpha Z        PSCENC =        90.42577596
  Ewald energy   TEWEN  =     -1146.88905665
  -Hartree energ DENC   =      -542.96682138
  -exchange      EXHF   =         0.00000000
  -V(xc)+E(xc)   XCENC  =       -70.39295437
  PAW double counting   =       944.44493428     -792.82579122
  entropy T*S    EENTRO =         0.00000000
  eigenvalues    EBANDS =       -67.71205530
  atomic energy  EATOM  =      1542.31022798
  Solvation  Ediel_sol  =         0.00000000
  ---------------------------------------------------
  free energy    TOTEN  =       -43.60574069 eV

  energy without entropy =      -43.60574069  energy(sigma->0) =      -43.60574069


--------------------------------------------------------------------------------------------------------




--------------------------------------- Iteration      1(  13)  ---------------------------------------


    POTLOK:  cpu time    0.0280: real time    0.0296
    SETDIJ:  cpu time    0.0050: real time    0.0045
    EDDIAG:  cpu time    0.2240: real time    0.2248
  RMM-DIIS:  cpu time    1.0578: real time    1.0575
    ORTHCH:  cpu time    0.0250: real time    0.0250
 BZINTS: Fermi energy:  3.309753; 36.000000 electrons
         Band energy: -67.715739;  BLOECHL correction:  0.000000
       DOS:  cpu time    0.0040: real time    0.0036
    CHARGE:  cpu time    0.0820: real time    0.0822
    MIXING:  cpu time    0.0010: real time    0.0012
    --------------------------------------------
      LOOP:  cpu time    1.4268: real time    1.4284

 eigenvalue-minimisations  :  2744
 total energy-change (2. order) :-0.1931646E-04  (-0.2217929E-04)
 number of electron      36.0000007 magnetization 
 augmentation part       -1.1018665 magnetization 

 Broyden mixing:
  rms(total) = 0.18926E-02    rms(broyden)= 0.18926E-02
  rms(prec ) = 0.25218E-02
  weight for this iteration     100.00

 eigenvalues of (default mixing * dielectric matrix)
  average eigenvalue GAMMA=   1.7328
  3.1958  2.6501  2.6501  1.6222  1.1112  0.8785  0.8785  0.8760

 Free energy of the ion-electron system (eV)
  ---------------------------------------------------
  alpha Z        PSCENC =        90.42577596
  Ewald energy   TEWEN  =     -1146.88905665
  -Hartree energ DENC   =      -542.96019589
  -exchange      EXHF   =         0.00000000
  -V(xc)+E(xc)   XCENC  =       -70.39526362
  PAW double counting   =       944.52868063     -792.91018904
  entropy T*S    EENTRO =         0.00000000
  eigenvalues    EBANDS =       -67.71573939
  atomic energy  EATOM  =      1542.31022798
  Solvation  Ediel_sol  =         0.00000000
  ---------------------------------------------------
  free energy    TOTEN  =       -43.60576001 eV

  energy without entropy =      -43.60576001  energy(sigma->0) =      -43.60576001


--------------------------------------------------------------------------------------------------------




--------------------------------------- Iteration      1(  14)  ---------------------------------------


    POTLOK:  cpu time    0.0280: real time    0.0298
    SETDIJ:  cpu time    0.0040: real time    0.0045
    EDDIAG:  cpu time    0.2250: real time    0.2245
  RMM-DIIS:  cpu time    0.8439: real time    0.8447
    ORTHCH:  cpu time    0.0260: real time    0.0250
 BZINTS: Fermi energy:  3.308494; 36.000000 electrons
         Band energy: -67.731182;  BLOECHL correction:  0.000000
       DOS:  cpu time    0.0030: real time    0.0036
    CHARGE:  cpu time    0.0820: real time    0.0821
    MIXING:  cpu time    0.0020: real time    0.0013
    --------------------------------------------
      LOOP:  cpu time    1.2138: real time    1.2155

 eigenvalue-minimisations  :  2130
 total energy-change (2. order) : 0.1301570E-04  (-0.7044912E-05)
 number of electron      36.0000007 magnetization 
 augmentation part       -1.1001304 magnetization 

 Broyden mixing:
  rms(total) = 0.27149E-03    rms(broyden)= 0.27146E-03
  rms(prec ) = 0.31595E-03
  weight for this iteration     100.00

 eigenvalues of (default mixing * dielectric matrix)
  average eigenvalue GAMMA=   1.6013
  3.1083  2.6954  2.3106  1.5550  1.1372  0.8718  0.8718  0.9306  0.9306

 Free energy of the ion-electron system (eV)
  ---------------------------------------------------
  alpha Z        PSCENC =        90.42577596
  Ewald energy   TEWEN  =     -1146.88905665
  -Hartree energ DENC   =      -542.94699776
  -exchange      EXHF   =         0.00000000
  -V(xc)+E(xc)   XCENC  =       -70.39249189
  PAW double counting   =       944.37680105     -792.75882335
  entropy T*S    EENTRO =         0.00000000
  eigenvalues    EBANDS =       -67.73118234
  atomic energy  EATOM  =      1542.31022798
  Solvation  Ediel_sol  =         0.00000000
  ---------------------------------------------------
  free energy    TOTEN  =       -43.60574699 eV

  energy without entropy =      -43.60574699  energy(sigma->0) =      -43.60574699


--------------------------------------------------------------------------------------------------------




--------------------------------------- Iteration      1(  15)  ---------------------------------------


    POTLOK:  cpu time    0.0280: real time    0.0302
    SETDIJ:  cpu time    0.0040: real time    0.0045
    EDDIAG:  cpu time    0.2250: real time    0.2246
  RMM-DIIS:  cpu time    0.6599: real time    0.6607
    ORTHCH:  cpu time    0.0260: real time    0.0250
 BZINTS: Fermi energy:  3.308986; 36.000000 electrons
         Band energy: -67.725594;  BLOECHL correction:  0.000000
       DOS:  cpu time    0.0030: real time    0.0036
    --------------------------------------------
      LOOP:  cpu time    0.9459: real time    0.9486

 eigenvalue-minimisations  :  1620
 total energy-change (2. order) :-0.4508011E-06  (-0.9717134E-06)
 number of electron      36.0000007 magnetization 
 augmentation part       -1.1001304 magnetization 

 Free energy of the ion-electron system (eV)
  ---------------------------------------------------
  alpha Z        PSCENC =        90.42577596
  Ewald energy   TEWEN  =     -1146.88905665
  -Hartree energ DENC   =      -542.95356490
  -exchange      EXHF   =         0.00000000
  -V(xc)+E(xc)   XCENC  =       -70.39238436
  PAW double counting   =       944.33866025     -792.71981200
  entropy T*S    EENTRO =         0.00000000
  eigenvalues    EBANDS =       -67.72559374
  atomic energy  EATOM  =      1542.31022798
  Solvation  Ediel_sol  =         0.00000000
  ---------------------------------------------------
  free energy    TOTEN  =       -43.60574744 eV

  energy without entropy =      -43.60574744  energy(sigma->0) =      -43.60574744


--------------------------------------------------------------------------------------------------------




 average (electrostatic) potential at core
  the test charge radii are     1.2296  0.9698
  (the norm of the test charge is              1.0000)
       1 -40.3326       2 -40.3326       3 -88.1703       4 -88.1703       5 -88.1703
       6 -88.1703
 
 
 
 E-fermi :   3.3090     XC(G=0):  -9.3248     alpha+bet : -9.6368


 k-point     1 :       0.0000    0.0000    0.0000
  band No.  band energies     occupation 
      1     -10.9296      2.00000
      2     -10.9106      2.00000
      3      -9.7292      2.00000
      4      -9.6952      2.00000
      5      -2.5232      2.00000
      6      -2.3617      2.00000
      7       0.5200      2.00000
      8       0.5200      2.00000
      9       0.5205      2.00000
     10       0.5205      2.00000
     11       1.1062      2.00000
     12       1.6249      2.00000
     13       1.6250      2.00000
     14       1.6269      2.00000
     15       1.6269      2.00000
     16       1.6748      2.00000
     17       2.9225      2.00000
     18       3.2984      2.00000
     19       5.8749      0.00000
     20       5.9113      0.00000
     21       6.0192      0.00000
     22       6.0856      0.00000

 k-point     2 :       0.0714    0.0000    0.0000
  band No.  band energies     occupation 
      1     -10.8583      2.00000
      2     -10.8394      2.00000
      3      -9.6946      2.00000
      4      -9.6615      2.00000
      5      -2.4386      2.00000
      6      -2.2775      2.00000
      7       0.3532      2.00000
      8       0.3540      2.00000
      9       0.5985      2.00000
     10       0.5992      2.00000
     11       0.8158      2.00000
     12       1.1075      2.00000
     13       1.5043      2.00000
     14       1.5065      2.00000
     15       1.8139      2.00000
     16       2.0697      2.00000
     17       2.9052      2.00000
     18       3.2354      2.00000
     19       5.7731      0.00000
     20       5.8198      0.00000
     21       5.8783      0.00000
     22       5.9682      0.00000

 k-point     3 :       0.1429    0.0000    0.0000
  band No.  band energies     occupation 
      1     -10.6520      2.00000
      2     -10.6335      2.00000
      3      -9.5950      2.00000
      4      -9.5643      2.00000
      5      -2.2110      2.00000
      6      -2.0537      2.00000
      7      -0.0618      2.00000
      8      -0.0576      2.00000
      9       0.3300      2.00000
     10       0.5259      2.00000
     11       0.8220      2.00000
     12       0.8234      2.00000
     13       1.2029      2.00000
     14       1.2057      2.00000
     15       1.9392      2.00000
     16       2.2206      2.00000
     17       2.8050      2.00000
     18       3.0118      2.00000
     19       5.4237      0.00000
     20       5.6329      0.00000
     21       5.6588      0.00000
     22       5.7863      0.00000

 k-point     4 :       0.2143   -0.0000    0.0000
  band No.  band energies     occupation 
      1     -10.3340      2.00000
      2     -10.3166      2.00000
      3      -9.4426      2.00000
      4      -9.4157      2.00000
      5      -1.9503      2.00000
      6      -1.8132      2.00000
      7      -0.5249      2.00000
      8      -0.5035      2.00000
      9      -0.1944      2.00000
     10      -0.0664      2.00000
     11       0.8342      2.00000
     12       0.8374      2.00000
     13       1.1532      2.00000
     14       1.1559      2.00000
     15       1.8206      2.00000
     16       2.0584      2.00000
     17       2.5405      2.00000
     18       2.6222      2.00000
     19       5.1356      0.00000
     20       5.4638      0.00000
     21       5.5483      0.00000
     22       5.5687      0.00000

 k-point     5 :       0.2857    0.0000    0.0000
  band No.  band energies     occupation 
      1      -9.9467      2.00000
      2      -9.9310      2.00000
      3      -9.2596      2.00000
      4      -9.2379      2.00000
      5      -1.9211      2.00000
      6      -1.8432      2.00000
      7      -0.7769      2.00000
      8      -0.7230      2.00000
      9      -0.7076      2.00000
     10      -0.6433      2.00000
     11       0.4858      2.00000
     12       0.4894      2.00000
     13       1.5276      2.00000
     14       1.5323      2.00000
     15       1.5818      2.00000
     16       1.7615      2.00000
     17       2.2218      2.00000
     18       2.2609      2.00000
     19       5.1683      0.00000
     20       5.3529      0.00000
     21       5.3670      0.00000
     22       5.4660      0.00000

 k-point     6 :       0.3571   -0.0000    0.0000
  band No.  band energies     occupation 
      1      -9.5559      2.00000
      2      -9.5431      2.00000
      3      -9.0793      2.00000
      4      -9.0635      2.00000
      5      -2.2027      2.00000
      6      -2.1639      2.00000
      7      -1.1971      2.00000
      8      -1.1485      2.00000
      9      -0.8287      2.00000
     10      -0.7424      2.00000
     11       0.2099      2.00000
     12       0.2138      2.00000
     13       1.3789      2.00000
     14       1.5010      2.00000
     15       1.8607      2.00000
     16       1.8685      2.00000
     17       2.1419      2.00000
     18       2.1913      2.00000
     19       5.2650      0.00000
     20       5.2753      0.00000
     21       5.3878      0.00000
     22       5.5939      0.00000

 k-point     7 :       0.4286   -0.0000    0.0000
  band No.  band energies     occupation 
      1      -9.2534      2.00000
      2      -9.2445      2.00000
      3      -8.9436      2.00000
      4      -8.9337      2.00000
      5      -2.4958      2.00000
      6      -2.4671      2.00000
      7      -1.5315      2.00000
      8      -1.5008      2.00000
      9      -0.9155      2.00000
     10      -0.8362      2.00000
     11       0.0350      2.00000
     12       0.0391      2.00000
     13       1.2693      2.00000
     14       1.3333      2.00000
     15       2.0797      2.00000
     16       2.0905      2.00000
     17       2.3328      2.00000
     18       2.3747      2.00000
     19       5.2674      0.00000
     20       5.2732      0.00000
     21       5.6474      0.00000
     22       5.7500      0.00000

 k-point     8 :       0.5000   -0.0000    0.0000
  band No.  band energies     occupation 
      1      -9.1370      2.00000
      2      -9.1305      2.00000
      3      -8.8922      2.00000
      4      -8.8857      2.00000
      5      -2.6133      2.00000
      6      -2.5863      2.00000
      7      -1.6524      2.00000
      8      -1.6280      2.00000
      9      -0.9680      2.00000
     10      -0.8921      2.00000
     11      -0.0247      2.00000
     12      -0.0206      2.00000
     13       1.2469      2.00000
     14       1.2664      2.00000
     15       2.1536      2.00000
     16       2.1657      2.00000
     17       2.4773      2.00000
     18       2.4811      2.00000
     19       5.2843      0.00000
     20       5.2880      0.00000
     21       5.7739      0.00000
     22       5.8321      0.00000

 k-point     9 :       0.0714    0.0714    0.0000
  band No.  band energies     occupation 
      1     -10.7195      2.00000
      2     -10.7009      2.00000
      3      -9.6275      2.00000
      4      -9.5960      2.00000
      5      -2.2812      2.00000
      6      -2.1221      2.00000
      7       0.0672      2.00000
      8       0.0677      2.00000
      9       0.4850      2.00000
     10       0.7116      2.00000
     11       0.7457      2.00000
     12       0.7466      2.00000
     13       1.2303      2.00000
     14       1.2355      2.00000
     15       1.9825      2.00000
     16       2.2568      2.00000
     17       2.8467      2.00000
     18       3.0915      2.00000
     19       5.5326      0.00000
     20       5.6057      0.00000
     21       5.7179      0.00000
     22       5.8411      0.00000

 k-point    10 :       0.1429    0.0714    0.0000
  band No.  band energies     occupation 
      1     -10.4569      2.00000
      2     -10.4390      2.00000
      3      -9.5010      2.00000
      4      -9.4727      2.00000
      5      -2.0261      2.00000
      6      -1.8769      2.00000
      7      -0.3607      2.00000
      8      -0.3524      2.00000
      9       0.0561      2.00000
     10       0.2158      2.00000
     11       0.7892      2.00000
     12       0.8035      2.00000
     13       1.0034      2.00000
     14       1.0051      2.00000
     15       2.0345      2.00000
     16       2.2716      2.00000
     17       2.6602      2.00000
     18       2.7790      2.00000
     19       5.1772      0.00000
     20       5.4748      0.00000
     21       5.5818      0.00000
     22       5.6441      0.00000

 k-point    11 :       0.2143    0.0714    0.0000
  band No.  band energies     occupation 
      1     -10.1029      2.00000
      2     -10.0864      2.00000
      3      -9.3321      2.00000
      4      -9.3082      2.00000
      5      -1.8577      2.00000
      6      -1.7502      2.00000
      7      -0.6972      2.00000
      8      -0.6542      2.00000
      9      -0.4464      2.00000
     10      -0.3537      2.00000
     11       0.3986      2.00000
     12       0.4299      2.00000
     13       1.2916      2.00000
     14       1.2942      2.00000
     15       1.8705      2.00000
     16       2.0437      2.00000
     17       2.3646      2.00000
     18       2.4031      2.00000
     19       5.0372      0.00000
     20       5.2800      0.00000
     21       5.4621      0.00000
     22       5.6078      0.00000

 k-point    12 :       0.2857    0.0714    0.0000
  band No.  band energies     occupation 
      1      -9.7106      2.00000
      2      -9.6964      2.00000
      3      -9.1478      2.00000
      4      -9.1294      2.00000
      5      -2.0121      2.00000
      6      -1.9604      2.00000
      7      -0.9791      2.00000
      8      -0.9289      2.00000
      9      -0.7734      2.00000
     10      -0.6921      2.00000
     11       0.1506      2.00000
     12       0.1835      2.00000
     13       1.4876      2.00000
     14       1.4919      2.00000
     15       1.6105      2.00000
     16       1.7278      2.00000
     17       2.2364      2.00000
     18       2.2611      2.00000
     19       5.0964      0.00000
     20       5.2498      0.00000
     21       5.4500      0.00000
     22       5.6203      0.00000

 k-point    13 :       0.3571    0.0714    0.0000
  band No.  band energies     occupation 
      1      -9.3582      2.00000
      2      -9.3476      2.00000
      3      -8.9860      2.00000
      4      -8.9736      2.00000
      5      -2.3102      2.00000
      6      -2.2786      2.00000
      7      -1.4222      2.00000
      8      -1.3936      2.00000
      9      -0.8322      2.00000
     10      -0.7520      2.00000
     11       0.0194      2.00000
     12       0.0422      2.00000
     13       1.3866      2.00000
     14       1.4586      2.00000
     15       1.6230      2.00000
     16       1.6354      2.00000
     17       2.3936      2.00000
     18       2.4169      2.00000
     19       5.2328      0.00000
     20       5.2986      0.00000
     21       5.5762      0.00000
     22       5.6779      0.00000

 k-point    14 :       0.4286    0.0714    0.0000
  band No.  band energies     occupation 
      1      -9.1430      2.00000
      2      -9.1360      2.00000
      3      -8.8892      2.00000
      4      -8.8820      2.00000
      5      -2.5116      2.00000
      6      -2.4847      2.00000
      7      -1.6717      2.00000
      8      -1.6534      2.00000
      9      -0.9262      2.00000
     10      -0.8515      2.00000
     11      -0.0342      2.00000
     12      -0.0210      2.00000
     13       1.2679      2.00000
     14       1.3033      2.00000
     15       1.7374      2.00000
     16       1.7485      2.00000
     17       2.5924      2.00000
     18       2.6094      2.00000
     19       5.2945      0.00000
     20       5.3153      0.00000
     21       5.7649      0.00000
     22       5.8346      0.00000

 k-point    15 :       0.1429    0.1429    0.0000
  band No.  band energies     occupation 
      1     -10.1574      2.00000
      2     -10.1406      2.00000
      3      -9.3571      2.00000
      4      -9.3324      2.00000
      5      -1.8372      2.00000
      6      -1.7166      2.00000
      7      -0.6429      2.00000
      8      -0.6165      2.00000
      9      -0.2384      2.00000
     10      -0.1360      2.00000
     11       0.1890      2.00000
     12       0.2408      2.00000
     13       1.1715      2.00000
     14       1.1732      2.00000
     15       2.0800      2.00000
     16       2.2454      2.00000
     17       2.4285      2.00000
     18       2.4687      2.00000
     19       4.9730      0.00000
     20       5.2271      0.00000
     21       5.5352      0.00000
     22       5.6018      0.00000

 k-point    16 :       0.2143    0.1429    0.0000
  band No.  band energies     occupation 
      1      -9.7948      2.00000
      2      -9.7800      2.00000
      3      -9.1837      2.00000
      4      -9.1638      2.00000
      5      -1.8599      2.00000
      6      -1.7938      2.00000
      7      -0.7563      2.00000
      8      -0.7234      2.00000
      9      -0.6999      2.00000
     10      -0.6356      2.00000
     11      -0.1005      2.00000
     12      -0.0109      2.00000
     13       1.1478      2.00000
     14       1.1505      2.00000
     15       1.9168      2.00000
     16       2.0127      2.00000
     17       2.3025      2.00000
     18       2.3112      2.00000
     19       4.9358      0.00000
     20       5.1718      0.00000
     21       5.5292      0.00000
     22       5.7457      0.00000

 k-point    17 :       0.2857    0.1429    0.0000
  band No.  band energies     occupation 
      1      -9.4329      2.00000
      2      -9.4211      2.00000
      3      -9.0121      2.00000
      4      -8.9978      2.00000
      5      -2.0671      2.00000
      6      -2.0305      2.00000
      7      -1.3209      2.00000
      8      -1.3058      2.00000
      9      -0.6794      2.00000
     10      -0.6080      2.00000
     11      -0.1340      2.00000
     12      -0.0589      2.00000
     13       1.0184      2.00000
     14       1.0319      2.00000
     15       1.6293      2.00000
     16       1.6784      2.00000
     17       2.4074      2.00000
     18       2.4137      2.00000
     19       5.1219      0.00000
     20       5.3314      0.00000
     21       5.6312      0.00000
     22       5.9665      0.00000

 k-point    18 :       0.3571    0.1429    0.0000
  band No.  band energies     occupation 
      1      -9.1563      2.00000
      2      -9.1484      2.00000
      3      -8.8824      2.00000
      4      -8.8737      2.00000
      5      -2.2536      2.00000
      6      -2.2266      2.00000
      7      -1.7123      2.00000
      8      -1.7055      2.00000
      9      -0.7955      2.00000
     10      -0.7276      2.00000
     11      -0.0811      2.00000
     12      -0.0282      2.00000
     13       1.0113      2.00000
     14       1.0297      2.00000
     15       1.3562      2.00000
     16       1.3922      2.00000
     17       2.6241      2.00000
     18       2.6415      2.00000
     19       5.2551      0.00000
     20       5.3345      0.00000
     21       5.7890      0.00000
     22       5.8642      0.00000

 k-point    19 :       0.4286    0.1429    0.0000
  band No.  band energies     occupation 
      1      -9.0509      2.00000
      2      -9.0454      2.00000
      3      -8.8332      2.00000
      4      -8.8276      2.00000
      5      -2.3244      2.00000
      6      -2.2995      2.00000
      7      -1.8506      2.00000
      8      -1.8484      2.00000
      9      -0.8746      2.00000
     10      -0.8074      2.00000
     11      -0.0419      2.00000
     12      -0.0020      2.00000
     13       1.0321      2.00000
[...]
      2      -9.1378      2.00000
      3      -8.8874      2.00000
      4      -8.8838      2.00000
      5      -2.5049      2.00000
      6      -2.4915      2.00000
      7      -1.6675      2.00000
      8      -1.6584      2.00000
      9      -0.9073      2.00000
     10      -0.8700      2.00000
     11      -0.0305      2.00000
     12      -0.0239      2.00000
     13       1.2762      2.00000
     14       1.2939      2.00000
     15       1.7404      2.00000
     16       1.7459      2.00000
     17       2.5968      2.00000
     18       2.6053      2.00000
     19       5.2996      0.00000
     20       5.3100      0.00000
     21       5.7817      0.00000
     22       5.8165      0.00000

 k-point    39 :       0.1429    0.1429    0.3333
  band No.  band energies     occupation 
      1     -10.1533      2.00000
      2     -10.1449      2.00000
      3      -9.3508      2.00000
      4      -9.3385      2.00000
      5      -1.8086      2.00000
      6      -1.7484      2.00000
      7      -0.6385      2.00000
      8      -0.6259      2.00000
      9      -0.2066      2.00000
     10      -0.1562      2.00000
     11       0.2008      2.00000
     12       0.2268      2.00000
     13       1.1719      2.00000
     14       1.1728      2.00000
     15       2.1146      2.00000
     16       2.1951      2.00000
     17       2.4450      2.00000
     18       2.4630      2.00000
     19       5.0313      0.00000
     20       5.1543      0.00000
     21       5.5352      0.00000
     22       5.5420      0.00000

 k-point    40 :       0.2143    0.1429    0.3333
  band No.  band energies     occupation 
      1      -9.7912      2.00000
      2      -9.7838      2.00000
      3      -9.1786      2.00000
      4      -9.1687      2.00000
      5      -1.8437      2.00000
      6      -1.8107      2.00000
      7      -0.7529      2.00000
      8      -0.7398      2.00000
      9      -0.6770      2.00000
     10      -0.6484      2.00000
     11      -0.0757      2.00000
     12      -0.0311      2.00000
     13       1.1484      2.00000
     14       1.1498      2.00000
     15       1.9388      2.00000
     16       1.9866      2.00000
     17       2.3054      2.00000
     18       2.3096      2.00000
     19       4.9923      0.00000
     20       5.1096      0.00000
     21       5.5389      0.00000
     22       5.8560      0.00000

 k-point    41 :       0.2857    0.1429    0.3333
  band No.  band energies     occupation 
      1      -9.4300      2.00000
      2      -9.4241      2.00000
      3      -9.0085      2.00000
      4      -9.0013      2.00000
      5      -2.0581      2.00000
      6      -2.0398      2.00000
      7      -1.3172      2.00000
      8      -1.3097      2.00000
      9      -0.6632      2.00000
     10      -0.6278      2.00000
     11      -0.1127      2.00000
     12      -0.0754      2.00000
     13       1.0216      2.00000
     14       1.0284      2.00000
     15       1.6408      2.00000
     16       1.6653      2.00000
     17       2.4091      2.00000
     18       2.4123      2.00000
     19       5.1713      0.00000
     20       5.2763      0.00000
     21       5.6128      0.00000
     22       6.1170      0.00000

 k-point    42 :       0.3571    0.1429    0.3333
  band No.  band energies     occupation 
      1      -9.1544      2.00000
      2      -9.1504      2.00000
      3      -8.8802      2.00000
      4      -8.8758      2.00000
      5      -2.2469      2.00000
      6      -2.2334      2.00000
      7      -1.7107      2.00000
      8      -1.7073      2.00000
      9      -0.7794      2.00000
     10      -0.7455      2.00000
     11      -0.0665      2.00000
     12      -0.0402      2.00000
     13       1.0158      2.00000
     14       1.0250      2.00000
     15       1.3647      2.00000
     16       1.3827      2.00000
     17       2.6286      2.00000
     18       2.6373      2.00000
     19       5.2752      0.00000
     20       5.3150      0.00000
     21       5.8055      0.00000
     22       5.8437      0.00000

 k-point    43 :       0.4286    0.1429    0.3333
  band No.  band energies     occupation 
      1      -9.0495      2.00000
      2      -9.0468      2.00000
      3      -8.8318      2.00000
      4      -8.8290      2.00000
      5      -2.3182      2.00000
      6      -2.3058      2.00000
      7      -1.8501      2.00000
      8      -1.8490      2.00000
      9      -0.8584      2.00000
     10      -0.8248      2.00000
     11      -0.0309      2.00000
     12      -0.0109      2.00000
     13       1.0364      2.00000
     14       1.0448      2.00000
     15       1.2472      2.00000
     16       1.2674      2.00000
     17       2.7566      2.00000
     18       2.7670      2.00000
     19       5.2429      0.00000
     20       5.2564      0.00000
     21       5.9844      0.00000
     22       6.0047      0.00000

 k-point    44 :       0.2143    0.2143    0.3333
  band No.  band energies     occupation 
      1      -9.4568      2.00000
      2      -9.4507      2.00000
      3      -9.0170      2.00000
      4      -9.0095      2.00000
      5      -1.9400      2.00000
      6      -1.9200      2.00000
      7      -1.2699      2.00000
      8      -1.2633      2.00000
      9      -0.5534      2.00000
     10      -0.5259      2.00000
     11      -0.1959      2.00000
     12      -0.1461      2.00000
     13       0.7190      2.00000
     14       0.7218      2.00000
     15       1.7670      2.00000
     16       1.7831      2.00000
     17       2.3968      2.00000
     18       2.3980      2.00000
     19       5.1259      0.00000
     20       5.2573      0.00000
     21       5.6375      0.00000
     22       5.6992      0.00000

 k-point    45 :       0.2857    0.2143    0.3333
  band No.  band energies     occupation 
      1      -9.1647      2.00000
      2      -9.1604      2.00000
      3      -8.8743      2.00000
      4      -8.8694      2.00000
      5      -1.9997      2.00000
      6      -1.9857      2.00000
      7      -1.7452      2.00000
      8      -1.7403      2.00000
      9      -0.5559      2.00000
     10      -0.5346      2.00000
     11      -0.1072      2.00000
     12      -0.0656      2.00000
     13       0.3532      2.00000
     14       0.3656      2.00000
     15       1.4618      2.00000
     16       1.4705      2.00000
     17       2.6078      2.00000
     18       2.6134      2.00000
     19       5.2259      0.00000
     20       5.2871      0.00000
     21       5.8639      0.00000
     22       5.9342      0.00000

 k-point    46 :       0.3571    0.2143    0.3333
  band No.  band energies     occupation 
      1      -8.9912      2.00000
      2      -8.9887      2.00000
      3      -8.7888      2.00000
      4      -8.7863      2.00000
      5      -2.0135      2.00000
      6      -2.0098      2.00000
      7      -1.9897      2.00000
      8      -1.9793      2.00000
      9      -0.7463      2.00000
     10      -0.7208      2.00000
     11       0.0274      2.00000
     12       0.0572      2.00000
     13       0.2554      2.00000
     14       0.2677      2.00000
     15       1.1985      2.00000
     16       1.2187      2.00000
     17       2.8450      2.00000
     18       2.8555      2.00000
     19       5.0797      0.00000
     20       5.0929      0.00000
     21       6.2565      0.00000
     22       6.2894      0.00000

 k-point    47 :       0.2857    0.2857    0.3333
  band No.  band energies     occupation 
      1      -8.9715      2.00000
      2      -8.9691      2.00000
      3      -8.7726      2.00000
      4      -8.7700      2.00000
      5      -2.0769      2.00000
      6      -2.0710      2.00000
      7      -1.7886      2.00000
      8      -1.7780      2.00000
      9      -0.5639      2.00000
     10      -0.5567      2.00000
     11      -0.2515      2.00000
     12      -0.2298      2.00000
     13       0.0645      2.00000
     14       0.0980      2.00000
     15       1.1764      2.00000
     16       1.1927      2.00000
     17       2.8799      2.00000
     18       2.8885      2.00000
     19       4.9942      0.00000
     20       5.0087      0.00000
     21       6.1369      0.00000
     22       6.2166      0.00000

 k-point    48 :       0.3571    0.2857    0.3333
  band No.  band energies     occupation 
      1      -8.9002      2.00000
      2      -8.8992      2.00000
      3      -8.7339      2.00000
      4      -8.7329      2.00000
      5      -2.1986      2.00000
      6      -2.1926      2.00000
      7      -1.5860      2.00000
      8      -1.5813      2.00000
      9      -0.8092      2.00000
     10      -0.8048      2.00000
     11      -0.3495      2.00000
     12      -0.3450      2.00000
     13       0.1920      2.00000
     14       0.2109      2.00000
     15       1.0142      2.00000
     16       1.0288      2.00000
     17       3.0438      2.00000
     18       3.0538      2.00000
     19       4.8213      0.00000
     20       4.8236      0.00000
     21       6.1211      0.00000
     22       6.2112      0.00000


--------------------------------------------------------------------------------------------------------


 soft charge-density along one line, spin component           1
         0         1         2         3         4         5         6         7         8         9
 total charge-density along one line
 
 pseudopotential strength for first ion, spin component:           1
 -8.238  -0.000   0.000   0.000   0.000  -0.074   0.000  -0.000
 -0.000  -8.239   0.000  -0.000  -0.000   0.000  -0.074  -0.000
  0.000   0.000  -8.218  -0.000  -0.000  -0.000  -0.000  -0.075
  0.000  -0.000  -0.000  -8.239  -0.000  -0.000   0.000   0.000
  0.000  -0.000  -0.000  -0.000  -8.238  -0.000   0.000   0.000
 -0.074   0.000  -0.000  -0.000  -0.000   0.112  -0.000   0.000
  0.000  -0.074  -0.000   0.000   0.000  -0.000   0.112   0.000
 -0.000  -0.000  -0.075   0.000   0.000   0.000   0.000   0.112
 -0.000   0.000   0.000  -0.074   0.000   0.000  -0.000  -0.000
 -0.000   0.000   0.000   0.000  -0.074   0.000  -0.000  -0.000
  0.000  -0.000  -0.005   0.000  -0.000  -0.000   0.000   0.000
 -0.000   0.000   0.001  -0.000   0.000   0.000  -0.000  -0.000
 -0.000   0.000  -0.000  -0.000  -0.007   0.000  -0.000   0.000
 -0.000   0.000   0.000  -0.000  -0.000  -0.000  -0.000  -0.000
 -0.007  -0.000   0.000   0.000  -0.000  -0.000  -0.000  -0.000
  0.000  -0.000   0.000   0.000   0.004  -0.000   0.000  -0.000
  0.000  -0.000  -0.000   0.000   0.000  -0.000   0.000   0.000
  0.004   0.000  -0.000  -0.000   0.000   0.000  -0.000   0.000
 total augmentation occupancy for first ion, spin component:           1
  0.965   0.000  -0.000   0.000  -0.000   0.601  -0.000  -0.000   0.000  -0.000  -0.000   0.000   0.000   0.000  -0.065  -0.000
  0.000   0.907  -0.000   0.000  -0.000  -0.000   0.839  -0.000   0.000  -0.000   0.000   0.000  -0.000  -0.000   0.000   0.000
 -0.000   0.000   1.029   0.000   0.000  -0.000  -0.000   0.501   0.000   0.000   0.111  -0.019  -0.000  -0.000   0.000   0.000
 -0.000   0.000  -0.000   0.907  -0.000  -0.000   0.000  -0.000   0.839  -0.000   0.000  -0.000   0.000  -0.000   0.000   0.000
 -0.000   0.000   0.000  -0.000   0.965  -0.000  -0.000   0.000  -0.000   0.601   0.000  -0.000  -0.065  -0.000  -0.000   0.007
  0.601   0.000  -0.000   0.000  -0.000   0.678   0.000  -0.000  -0.000  -0.000   0.000  -0.000   0.000   0.000  -0.136  -0.000
  0.000   0.839  -0.000   0.000   0.000   0.000   1.081   0.000   0.000  -0.000   0.000   0.000  -0.000   0.000   0.000   0.000
 -0.000  -0.000   0.501  -0.000   0.000  -0.000   0.000   0.476  -0.000   0.000   0.059  -0.021  -0.000   0.000   0.000   0.000
  0.000   0.000  -0.000   0.839  -0.000  -0.000   0.000   0.000   1.081   0.000   0.000  -0.000  -0.000  -0.000   0.000   0.000
 -0.000   0.000   0.000  -0.000   0.601  -0.000  -0.000   0.000  -0.000   0.678   0.000  -0.000  -0.136   0.000  -0.000   0.023
 -0.000  -0.000   0.111   0.000   0.000   0.000   0.000   0.059  -0.000   0.000   1.207  -0.185  -0.000  -0.000   0.000   0.000
  0.000   0.000  -0.019  -0.000  -0.000  -0.000  -0.000  -0.021  -0.000  -0.000  -0.185   0.042   0.000  -0.000  -0.000   0.000
  0.000  -0.000  -0.000  -0.000  -0.065   0.000   0.000  -0.000  -0.000  -0.136  -0.000   0.000   0.217  -0.000   0.000  -0.032
 -0.000  -0.000  -0.000  -0.000   0.000   0.000  -0.000   0.000  -0.000  -0.000  -0.000  -0.000  -0.000   0.264   0.000   0.000
 -0.065   0.000   0.000   0.000  -0.000  -0.136   0.000   0.000   0.000  -0.000   0.000  -0.000   0.000   0.000   0.217  -0.000
 -0.000  -0.000   0.000  -0.000   0.007  -0.000   0.000   0.000   0.000   0.023   0.000   0.000  -0.032   0.000  -0.000   0.005
  0.000  -0.000  -0.000   0.000  -0.000   0.000   0.000   0.000  -0.000  -0.000   0.000  -0.000   0.000  -0.038   0.000   0.000
  0.007   0.000  -0.000  -0.000   0.000   0.023   0.000  -0.000  -0.000   0.000   0.000  -0.000  -0.000  -0.000  -0.032   0.000


------------------------ aborting loop because EDIFF is reached ----------------------------------------


    CHARGE:  cpu time    0.0820: real time    0.0828
    FORLOC:  cpu time    0.0030: real time    0.0031
    FORNL :  cpu time    0.2780: real time    0.2769
    STRESS:  cpu time    0.7949: real time    0.7950
    FORCOR:  cpu time    0.0320: real time    0.0313
    FORHAR:  cpu time    0.0070: real time    0.0069
    MIXING:  cpu time    0.0010: real time    0.0013
    OFIELD:  cpu time    0.0000: real time    0.0000

  DFT-D2 method for vdW energy calculation
  -------------------------------------------------------------------

  Parameters of vdW forcefield:
         C6(Jnm^6/mol)     R0(A)
   -----------------------------
   Mo      24.670          1.639
   S        5.570          1.683

  IVDW =   1
  VDW_RADIUS =    50.000 A
  VDW_S6 =     0.750
  VDW_SR =     1.000
  VDW_D =    20.000
  LVDW_EWALD = F

  Number of pair interactions contributing to vdW energy:   84128
  Edisp (eV):   -1.33129
    FORVDW:  cpu time    0.0220: real time    0.0279

  FORCE on cell =-STRESS in cart. coord.  units (eV):
  Direction    XX          YY          ZZ          XY          YZ          ZX
  --------------------------------------------------------------------------------------
  Alpha Z    90.42578    90.42578    90.42578
  Ewald     -12.90873   -12.90785 -1121.07429     0.00038     0.00000     0.00025
  Hartree   466.59741   466.59742  -390.21946     0.00003    -0.00000    -0.00001
  E(xc)    -140.60504  -140.60505  -141.79650    -0.00001    -0.00000    -0.00000
  Local   -1080.53545 -1080.53612   872.57453    -0.00042    -0.00000    -0.00011
  n-local   254.45364   251.43921   263.35163    -0.52690     0.00291     0.00277
  augment   -51.13294   -51.13279   -53.33444     0.00014     0.00000    -0.00001
  Kinetic   472.19864   477.05028   479.58323   -15.00514     0.00470     0.00473
  Fock        0.00000     0.00000     0.00000     0.00000     0.00000     0.00000
  vdW         0.17103     0.17103    -0.86546     0.00000     0.00000    -0.00000
  -------------------------------------------------------------------------------------
  Total      -0.41687    -0.41687    -1.35498     0.00000     0.00000     0.00000
  in kB      -5.09263    -5.09263   -16.55287     0.00000     0.00000     0.00000
  external pressure =       -8.91 kB  Pullay stress =        0.00 kB


 VOLUME and BASIS-vectors are now :
 -----------------------------------------------------------------------------
  energy-cutoff  :      450.00
  volume of cell :      131.15
      direct lattice vectors                 reciprocal lattice vectors
     3.190315730  0.000000000  0.000000000     0.313448600  0.180969634  0.000000000
    -1.595157865  2.762894468  0.000000000     0.000000000  0.361939267  0.000000000
     0.000000000  0.000000000 14.879004300     0.000000000  0.000000000  0.067208798

  length of vectors
     3.190315730  3.190315730 14.879004300     0.361939267  0.361939267  0.067208798


 FORCES acting on ions
    electron-ion (+dipol)            ewald-force                    non-local-force                 convergence-correction
 -----------------------------------------------------------------------------------------------
   0.473E-04 -.345E-04 -.994E-05   0.928E-04 -.107E-03 0.288E-09   0.867E-17 -.208E-16 0.000E+00   0.358E-08 -.513E-08 -.340E-09
   0.659E-04 -.309E-04 -.994E-05   -.928E-04 0.107E-03 -.288E-09   -.208E-16 0.208E-16 0.000E+00   0.677E-08 -.842E-09 -.341E-09
   0.525E-03 -.305E-03 -.242E+03   0.865E-04 -.537E-04 0.247E+03   -.477E-17 -.781E-17 -.480E+01   0.103E-07 -.638E-08 0.801E-02
   -.117E-02 0.679E-03 0.242E+03   -.865E-04 0.537E-04 -.247E+03   -.477E-17 0.781E-17 0.480E+01   -.284E-07 0.168E-07 -.801E-02
   0.523E-03 0.689E-03 -.242E+03   -.638E-05 0.537E-04 0.247E+03   0.104E-16 0.520E-17 -.480E+01   0.130E-07 0.148E-07 0.801E-02
   -.121E-02 -.292E-03 0.242E+03   0.638E-05 -.537E-04 -.247E+03   -.867E-17 -.520E-17 0.480E+01   -.241E-07 -.839E-08 -.801E-02
 -----------------------------------------------------------------------------------------------
   -.122E-02 0.706E-03 -.111E-04   -.561E-14 0.109E-13 0.284E-13   -.199E-16 0.000E+00 -.178E-14   -.188E-07 0.109E-07 -.887E-09
 
 
 POSITION                                       TOTAL-FORCE (eV/Angst)
 -----------------------------------------------------------------------------------
     -0.00000      1.84193      3.71975         0.000000     -0.000000     -0.000000
      1.59516      0.92096     11.15925         0.000000      0.000000     -0.000000
     -0.00000      1.84193     12.72414        -0.000000      0.000000     -0.085658
      1.59516      0.92096      2.15487         0.000000     -0.000000      0.085658
      1.59516      0.92096      5.28464         0.000000      0.000000     -0.085658
      0.00000      1.84193      9.59437        -0.000000     -0.000000      0.085658
 -----------------------------------------------------------------------------------
    total drift:                               -0.001223      0.000706     -0.000011


--------------------------------------------------------------------------------------------------------



  FREE ENERGIE OF THE ION-ELECTRON SYSTEM (eV)
  ---------------------------------------------------
  free  energy   TOTEN  =       -44.93703446 eV

  energy  without entropy=      -44.93703446  energy(sigma->0) =      -44.93703446
 


--------------------------------------------------------------------------------------------------------


    POTLOK:  cpu time    0.0330: real time    0.0322


--------------------------------------------------------------------------------------------------------


     LOOP+:  cpu time   21.2758: real time   21.4406
    4ORBIT:  cpu time    0.0000: real time    0.0000
 BZINTS: Fermi energy:  3.308986; 36.000000 electrons
         Band energy: -67.725594;  BLOECHL correction:  0.000000

 total amount of memory used by VASP MPI-rank0    68779. kBytes
=======================================================================

   base      :      30000. kBytes
   nonl-proj :      20434. kBytes
   fftplans  :       2162. kBytes
   grid      :       3449. kBytes
   one-center:         46. kBytes
   wavefun   :      12688. kBytes
 
  
  
 General timing and accounting informations for this job:
 ========================================================
  
                  Total CPU time used (sec):       22.430
                            User time (sec):       22.262
                          System time (sec):        0.168
                         Elapsed time (sec):       23.035
  
                   Maximum memory used (kb):       59224.
                   Average memory used (kb):           0.
  
                          Minor page faults:        15047
                          Major page faults:          183
                 Voluntary context switches:         2723
