perl: warning: Setting locale failed.
perl: warning: Please check that your locale settings:
	LANGUAGE = (unset),
	LC_ALL = (unset),
	LC_CTYPE = "UTF-8",
	LANG = "en_US.iso885915"
    are supported and installed on your system.
perl: warning: Falling back to the standard locale ("C").
Starting job 28533284 ("jobname") on c14-5 at Fri Nov 8 12:19:58 CET 2019
 running on    4 total cores
 distrk:  each k-point on    4 cores,    1 groups
 distr:  one band on    2 cores,    2 groups
 using from now: INCAR     
 vasp.5.4.4.18Apr17-6-g9f103f2a35 (build Jun 30 2017 11:15:00) complex          
  
 POSCAR found type information on POSCAR  Mo S 
 POSCAR found :  2 types and       6 ions
 scaLAPACK will be used
 LDA part: xc-table for Pade appr. of Perdew
 POSCAR, INCAR and KPOINTS ok, starting setup
 FFT: planning ...
 WAVECAR not read
 WARNING: random wavefunctions but no delay for mixing, default for NELMDL
 entering main loop
       N       E                     dE             d eps       ncg     rms          rms(c)
DAV:   1     0.200385015841E+03    0.20039E+03   -0.14686E+04  2112   0.126E+03
DAV:   2    -0.284589761009E+02   -0.22884E+03   -0.22258E+03  2868   0.263E+02
DAV:   3    -0.462581119900E+02   -0.17799E+02   -0.17697E+02  2820   0.743E+01
DAV:   4    -0.468076562137E+02   -0.54954E+00   -0.54882E+00  2956   0.137E+01
DAV:   5    -0.468203660029E+02   -0.12710E-01   -0.12706E-01  2834   0.209E+00    0.973E+00
RMM:   6    -0.444215606769E+02    0.23988E+01   -0.24192E+01  2349   0.195E+01    0.335E+00
RMM:   7    -0.436944170637E+02    0.72714E+00   -0.18970E+00  2319   0.554E+00    0.178E+00
RMM:   8    -0.436322221310E+02    0.62195E-01   -0.90796E-01  2431   0.335E+00    0.843E-01
RMM:   9    -0.436231386536E+02    0.90835E-02   -0.31850E-01  2492   0.231E+00    0.596E-01
RMM:  10    -0.436054642869E+02    0.17674E-01   -0.70205E-02  2512   0.114E+00    0.737E-02
RMM:  11    -0.436056051735E+02   -0.14089E-03   -0.34434E-03  2719   0.233E-01    0.304E-02
RMM:  12    -0.436057406932E+02   -0.13552E-03   -0.53120E-04  2715   0.103E-01    0.121E-02
RMM:  13    -0.436057600097E+02   -0.19316E-04   -0.22179E-04  2744   0.582E-02    0.189E-02
RMM:  14    -0.436057469940E+02    0.13016E-04   -0.70449E-05  2130   0.372E-02    0.271E-03
RMM:  15    -0.436057474448E+02   -0.45080E-06   -0.97171E-06  1620   0.146E-02
   1 F= -.44937034E+02 E0= -.44937034E+02  d E =0.000000E+00

Currently Loaded Modulefiles:
  1) Anaconda3/5.1.0       3) vesta/3.3.8           5) intel/2016.1
  2) gnuplot/5.0.4         4) imagemagick/6.7.9-0   6) vasp/5.4.1.Feb16

Job script resource usage:
       JobID  MaxVMSize     MaxRSS 
------------ ---------- ---------- 
28533284.ba+    216888K      2587K 

Job step resource usage:
       JobID    JobName  AllocCPUS  MaxVMSize     MaxRSS    Elapsed ExitCode 
------------ ---------- ---------- ---------- ---------- ---------- -------- 
28533284        jobname          4                         00:00:26      0:0 
28533284.0    pmi_proxy          1    279832K       536K   00:00:24      0:0 

Job 28533284 ("jobname") completed on c14-5 at Fri Nov 8 12:20:22 CET 2019
