perl: warning: Setting locale failed.
perl: warning: Please check that your locale settings:
	LANGUAGE = (unset),
	LC_ALL = (unset),
	LC_CTYPE = "UTF-8",
	LANG = "en_US.iso885915"
    are supported and installed on your system.
perl: warning: Falling back to the standard locale ("C").
Starting job 28531639 ("jobname") on c14-23 at Fri Nov 8 10:35:58 CET 2019
 running on    4 total cores
 distrk:  each k-point on    4 cores,    1 groups
 distr:  one band on    2 cores,    2 groups
 using from now: INCAR     
 vasp.5.4.4.18Apr17-6-g9f103f2a35 (build Jun 30 2017 11:15:00) complex          
  
 POSCAR found type information on POSCAR  Mo S 
 POSCAR found :  2 types and       6 ions
 scaLAPACK will be used
 LDA part: xc-table for Pade appr. of Perdew
 POSCAR, INCAR and KPOINTS ok, starting setup
 FFT: planning ...
 WAVECAR not read
 WARNING: random wavefunctions but no delay for mixing, default for NELMDL
 entering main loop
       N       E                     dE             d eps       ncg     rms          rms(c)
slurmstepd: error: *** JOB 28531639 ON c14-23 CANCELLED AT 2019-11-08T10:36:01 ***

Currently Loaded Modulefiles:
srun: Job step aborted: Waiting up to 32 seconds for job step to finish.
slurmstepd: error: *** STEP 28531639.0 ON c14-23 CANCELLED AT 2019-11-08T10:36:01 ***
  1) Anaconda3/5.1.0       3) vesta/3.3.8           5) intel/2016.1
  2) gnuplot/5.0.4         4) imagemagick/6.7.9-0   6) vasp/5.4.1.Feb16
forrtl: error (78): process killed (SIGTERM)
Image              PC                Routine            Line        Source             
vasp_std           00000000058E929A  Unknown               Unknown  Unknown
libpthread-2.12.s  00007F8AA26317E0  Unknown               Unknown  Unknown
vasp_std           0000000004D8944D  mkl_blas_avx_zgem     Unknown  Unknown

Job script resource usage:
forrtl: error (78): process killed (SIGTERM)
Image              PC                Routine            Line        Source             
vasp_std           00000000058E929A  Unknown               Unknown  Unknown
libpthread-2.12.s  00007FB678AC87E0  Unknown               Unknown  Unknown
vasp_std           0000000001B75AC7  Unknown               Unknown  Unknown
forrtl: error (78): process killed (SIGTERM)
Image              PC                Routine            Line        Source             
vasp_std           00000000058E929A  Unknown               Unknown  Unknown
libpthread-2.12.s  00007FC44EF827E0  Unknown               Unknown  Unknown
vasp_std           0000000004D8944D  mkl_blas_avx_zgem     Unknown  Unknown
       JobID  MaxVMSize     MaxRSS 
------------ ---------- ---------- 
28531639.ba+    605280K      6734K 

Job step resource usage:
forrtl: error (78): process killed (SIGTERM)
Image              PC                Routine            Line        Source             
vasp_std           00000000058E929A  Unknown               Unknown  Unknown
libpthread-2.12.s  00007F92D3DF27E0  Unknown               Unknown  Unknown
vasp_std           0000000004696C9D  Unknown               Unknown  Unknown
vasp_std           00000000037D8F05  Unknown               Unknown  Unknown
vasp_std           0000000001B7AAAD  mkl_blas_avx_xzge     Unknown  Unknown
vasp_std           000000000179C535  Unknown               Unknown  Unknown
vasp_std           000000000178AB43  zgemm_                Unknown  Unknown
vasp_std           0000000000DF1D55  Unknown               Unknown  Unknown
vasp_std           0000000000E608AC  Unknown               Unknown  Unknown
vasp_std           00000000015162B8  Unknown               Unknown  Unknown
vasp_std           00000000014F1F6A  Unknown               Unknown  Unknown
vasp_std           000000000044331E  Unknown               Unknown  Unknown
libc-2.12.so       00007F92D256BD20  __libc_start_main     Unknown  Unknown
vasp_std           0000000000443229  Unknown               Unknown  Unknown
       JobID    JobName  AllocCPUS  MaxVMSize     MaxRSS    Elapsed ExitCode 
------------ ---------- ---------- ---------- ---------- ---------- -------- 
28531639        jobname          4                         00:00:05      0:0 
28531639.0    pmi_proxy          1                         00:00:03      0:0 

Job 28531639 ("jobname") completed on c14-23 at Fri Nov 8 10:36:02 CET 2019
