perl: warning: Setting locale failed.
perl: warning: Please check that your locale settings:
	LANGUAGE = (unset),
	LC_ALL = (unset),
	LC_CTYPE = "UTF-8",
	LANG = "en_US.iso885915"
    are supported and installed on your system.
perl: warning: Falling back to the standard locale ("C").
Starting job 28531731 ("jobname") on c15-25 at Fri Nov 8 10:41:16 CET 2019
 running on    4 total cores
 distrk:  each k-point on    4 cores,    1 groups
 distr:  one band on    2 cores,    2 groups
 using from now: INCAR     
 vasp.5.4.4.18Apr17-6-g9f103f2a35 (build Jun 30 2017 11:15:00) complex          
  
 POSCAR found type information on POSCAR  Mo S 
 POSCAR found :  2 types and       6 ions
 scaLAPACK will be used
 LDA part: xc-table for Pade appr. of Perdew
 POSCAR, INCAR and KPOINTS ok, starting setup
 FFT: planning ...
 WAVECAR not read
 WARNING: random wavefunctions but no delay for mixing, default for NELMDL
 entering main loop
       N       E                     dE             d eps       ncg     rms          rms(c)
DAV:   1     0.244921118540E+03    0.24492E+03   -0.17922E+04  2112   0.169E+03
DAV:   2    -0.230010516218E+02   -0.26792E+03   -0.26054E+03  2822   0.301E+02
DAV:   3    -0.461793397122E+02   -0.23178E+02   -0.22961E+02  2906   0.842E+01
DAV:   4    -0.468045242143E+02   -0.62518E+00   -0.62419E+00  2854   0.151E+01
DAV:   5    -0.468245109911E+02   -0.19987E-01   -0.19982E-01  2928   0.258E+00    0.974E+00
RMM:   6    -0.444346661996E+02    0.23898E+01   -0.24336E+01  2356   0.197E+01    0.335E+00
RMM:   7    -0.436993969075E+02    0.73527E+00   -0.19083E+00  2304   0.564E+00    0.178E+00
RMM:   8    -0.436393075799E+02    0.60089E-01   -0.94089E-01  2424   0.341E+00    0.861E-01
RMM:   9    -0.436300628015E+02    0.92448E-02   -0.34488E-01  2475   0.243E+00    0.624E-01
RMM:  10    -0.436103499646E+02    0.19713E-01   -0.75859E-02  2505   0.119E+00    0.685E-02
RMM:  11    -0.436105777043E+02   -0.22774E-03   -0.37166E-03  2741   0.235E-01    0.294E-02
RMM:  12    -0.436107130664E+02   -0.13536E-03   -0.48798E-04  2686   0.111E-01    0.121E-02
RMM:  13    -0.436107304985E+02   -0.17432E-04   -0.20824E-04  2731   0.562E-02    0.175E-02
RMM:  14    -0.436107193725E+02    0.11126E-04   -0.58009E-05  2050   0.353E-02    0.267E-03
RMM:  15    -0.436107198954E+02   -0.52293E-06   -0.10388E-05  1617   0.150E-02
 Error reading item 'IVDW' from file INCAR
   1 F= -.43610720E+02 E0= -.43610720E+02  d E =-.146086E-08

Currently Loaded Modulefiles:
  1) Anaconda3/5.1.0       3) vesta/3.3.8           5) intel/2016.1
  2) gnuplot/5.0.4         4) imagemagick/6.7.9-0   6) vasp/5.4.1.Feb16

Job script resource usage:
       JobID  MaxVMSize     MaxRSS 
------------ ---------- ---------- 
28531731.ba+    499284K      5915K 

Job step resource usage:
       JobID    JobName  AllocCPUS  MaxVMSize     MaxRSS    Elapsed ExitCode 
------------ ---------- ---------- ---------- ---------- ---------- -------- 
28531731        jobname          4                         00:00:34      0:0 
28531731.0    pmi_proxy          1   1492208K    293560K   00:00:32      0:0 

Job 28531731 ("jobname") completed on c15-25 at Fri Nov 8 10:41:48 CET 2019
