<?xml version="1.0" encoding="ISO-8859-1"?>
<modeling>
 <generator>
  <i name="program" type="string">vasp </i>
  <i name="version" type="string">5.4.4.18Apr17-6-g9f103f2a35  </i>
  <i name="subversion" type="string">(build Jun 30 2017 11:15:00) complex            parallel </i>
  <i name="platform" type="string">STALLO_VASP_5.4.4 </i>
  <i name="date" type="string">2019 11 08 </i>
  <i name="time" type="string">12:19:59 </i>
 </generator>
 <incar>
  <i type="string" name="PREC">normal    ! low/normal/accurate</i>
  <i type="string" name="ALGO"> Fast      ! Algorithm for electronic re</i>
  <i type="int" name="ISPIN">     1</i>
  <i type="int" name="NELMIN">     4</i>
  <i name="EDIFF">      0.00001000</i>
  <i type="int" name="NSW">     0</i>
  <i name="ENCUT">    450.00000000</i>
  <i type="logical" name="LREAL"> F  </i>
  <i type="int" name="ISMEAR">    -5</i>
  <i name="SIGMA">      0.20000000</i>
  <i type="logical" name="LWAVE"> F  </i>
  <v type="int" name="KPOINT_BSE">    -1     0     0     0</v>
 </incar>
 <structure name="primitive_cell" >
  <crystal>
   <varray name="basis" >
    <v>       3.19031573       0.00000000       0.00000000 </v>
    <v>      -1.59515786       2.76289447       0.00000000 </v>
    <v>       0.00000000       0.00000000      14.87900430 </v>
   </varray>
   <i name="volume">    131.15106795 </i>
   <varray name="rec_basis" >
    <v>       0.31344860       0.18096963       0.00000000 </v>
    <v>       0.00000000       0.36193927       0.00000000 </v>
    <v>       0.00000000       0.00000000       0.06720880 </v>
   </varray>
  </crystal>
  <varray name="positions" >
   <v>       0.33333300      -0.33333300       0.25000000 </v>
   <v>      -0.33333400       0.33333300       0.35517400 </v>
   <v>      -0.33333300       0.33333300       0.14482600 </v>
   <v>       0.33333300      -0.33333300      -0.14482600 </v>
   <v>       0.33333400      -0.33333300      -0.35517400 </v>
   <v>      -0.33333300       0.33333300      -0.25000000 </v>
  </varray>
 </structure>
 <varray name="primitive_index" >
  <v type="int" >        1 </v>
  <v type="int" >        5 </v>
  <v type="int" >        4 </v>
  <v type="int" >        3 </v>
  <v type="int" >        6 </v>
  <v type="int" >        2 </v>
 </varray>
 <kpoints>
  <generation param="Gamma">
   <v type="int" name="divisions">      14       14        3 </v>
   <v name="usershift">      0.00000000       0.00000000       0.00000000 </v>
   <v name="genvec1">      0.07142857       0.00000000       0.00000000 </v>
   <v name="genvec2">      0.00000000       0.07142857       0.00000000 </v>
   <v name="genvec3">      0.00000000       0.00000000       0.33333333 </v>
   <v name="shift">      0.00000000       0.00000000       0.00000000 </v>
  </generation>
  <varray name="kpointlist" >
   <v>       0.00000000       0.00000000       0.00000000 </v>
   <v>       0.07142857       0.00000000       0.00000000 </v>
   <v>       0.14285714       0.00000000       0.00000000 </v>
   <v>       0.21428571      -0.00000000       0.00000000 </v>
   <v>       0.28571429       0.00000000       0.00000000 </v>
   <v>       0.35714286      -0.00000000       0.00000000 </v>
   <v>       0.42857143      -0.00000000       0.00000000 </v>
   <v>       0.50000000      -0.00000000       0.00000000 </v>
   <v>       0.07142857       0.07142857       0.00000000 </v>
   <v>       0.14285714       0.07142857       0.00000000 </v>
   <v>       0.21428571       0.07142857       0.00000000 </v>
   <v>       0.28571429       0.07142857       0.00000000 </v>
   <v>       0.35714286       0.07142857       0.00000000 </v>
   <v>       0.42857143       0.07142857       0.00000000 </v>
   <v>       0.14285714       0.14285714       0.00000000 </v>
   <v>       0.21428571       0.14285714       0.00000000 </v>
   <v>       0.28571429       0.14285714       0.00000000 </v>
   <v>       0.35714286       0.14285714       0.00000000 </v>
   <v>       0.42857143       0.14285714       0.00000000 </v>
   <v>       0.21428571       0.21428571       0.00000000 </v>
   <v>       0.28571429       0.21428571       0.00000000 </v>
   <v>       0.35714286       0.21428571       0.00000000 </v>
   <v>       0.28571429       0.28571429       0.00000000 </v>
   <v>       0.35714286       0.28571429       0.00000000 </v>
   <v>       0.00000000       0.00000000       0.33333333 </v>
   <v>       0.07142857       0.00000000       0.33333333 </v>
   <v>       0.14285714       0.00000000       0.33333333 </v>
   <v>       0.21428571      -0.00000000       0.33333333 </v>
   <v>       0.28571429       0.00000000       0.33333333 </v>
   <v>       0.35714286      -0.00000000       0.33333333 </v>
   <v>       0.42857143      -0.00000000       0.33333333 </v>
   <v>       0.50000000      -0.00000000       0.33333333 </v>
   <v>       0.07142857       0.07142857       0.33333333 </v>
   <v>       0.14285714       0.07142857       0.33333333 </v>
   <v>       0.21428571       0.07142857       0.33333333 </v>
   <v>       0.28571429       0.07142857       0.33333333 </v>
   <v>       0.35714286       0.07142857       0.33333333 </v>
   <v>       0.42857143       0.07142857       0.33333333 </v>
   <v>       0.14285714       0.14285714       0.33333333 </v>
   <v>       0.21428571       0.14285714       0.33333333 </v>
   <v>       0.28571429       0.14285714       0.33333333 </v>
   <v>       0.35714286       0.14285714       0.33333333 </v>
   <v>       0.42857143       0.14285714       0.33333333 </v>
   <v>       0.21428571       0.21428571       0.33333333 </v>
   <v>       0.28571429       0.21428571       0.33333333 </v>
   <v>       0.35714286       0.21428571       0.33333333 </v>
   <v>       0.28571429       0.28571429       0.33333333 </v>
   <v>       0.35714286       0.28571429       0.33333333 </v>
  </varray>
  <varray name="weights" >
   <v>       0.00170068 </v>
   <v>       0.01020408 </v>
   <v>       0.01020408 </v>
   <v>       0.01020408 </v>
   <v>       0.01020408 </v>
   <v>       0.01020408 </v>
   <v>       0.01020408 </v>
   <v>       0.00510204 </v>
   <v>       0.01020408 </v>
   <v>       0.02040816 </v>
   <v>       0.02040816 </v>
   <v>       0.02040816 </v>
   <v>       0.02040816 </v>
   <v>       0.02040816 </v>
   <v>       0.01020408 </v>
   <v>       0.02040816 </v>
   <v>       0.02040816 </v>
   <v>       0.02040816 </v>
   <v>       0.01020408 </v>
   <v>       0.01020408 </v>
   <v>       0.02040816 </v>
   <v>       0.02040816 </v>
   <v>       0.01020408 </v>
   <v>       0.01020408 </v>
   <v>       0.00340136 </v>
   <v>       0.02040816 </v>
   <v>       0.02040816 </v>
   <v>       0.02040816 </v>
   <v>       0.02040816 </v>
   <v>       0.02040816 </v>
   <v>       0.02040816 </v>
   <v>       0.01020408 </v>
   <v>       0.02040816 </v>
   <v>       0.04081633 </v>
   <v>       0.04081633 </v>
   <v>       0.04081633 </v>
   <v>       0.04081633 </v>
   <v>       0.04081633 </v>
   <v>       0.02040816 </v>
   <v>       0.04081633 </v>
   <v>       0.04081633 </v>
   <v>       0.04081633 </v>
   <v>       0.02040816 </v>
   <v>       0.02040816 </v>
   <v>       0.04081633 </v>
   <v>       0.04081633 </v>
   <v>       0.02040816 </v>
   <v>       0.02040816 </v>
  </varray>
  <varray name="tetrahedronlist"  type="int" >
   <v type="int" >        8        2        2        9       26 </v>
   <v type="int" >        8        1        2        2       26 </v>
   <v type="int" >        4        1        2       25       26 </v>
   <v type="int" >        4        2        9       26       33 </v>
   <v type="int" >        8        2       26       26       33 </v>
   <v type="int" >        8        2       25       26       26 </v>
   <v type="int" >        8        3        9       10       33 </v>
   <v type="int" >        8        2        3        9       33 </v>
   <v type="int" >        4        2        3       26       33 </v>
   <v type="int" >        4        3       10       33       34 </v>
   <v type="int" >        8        3       27       33       34 </v>
   <v type="int" >        8        3       26       27       33 </v>
   <v type="int" >        8        4       10       11       34 </v>
   <v type="int" >        8        3        4       10       34 </v>
   <v type="int" >        4        3        4       27       34 </v>
   <v type="int" >        4        4       11       34       35 </v>
   <v type="int" >        8        4       28       34       35 </v>
   <v type="int" >        8        4       27       28       34 </v>
   <v type="int" >        8        5       11       12       35 </v>
   <v type="int" >        8        4        5       11       35 </v>
   <v type="int" >        4        4        5       28       35 </v>
   <v type="int" >        4        5       12       35       36 </v>
   <v type="int" >        8        5       29       35       36 </v>
   <v type="int" >        8        5       28       29       35 </v>
   <v type="int" >        8        6       12       13       36 </v>
   <v type="int" >        8        5        6       12       36 </v>
   <v type="int" >        4        5        6       29       36 </v>
   <v type="int" >        4        6       13       36       37 </v>
   <v type="int" >        8        6       30       36       37 </v>
   <v type="int" >        8        6       29       30       36 </v>
   <v type="int" >        8        7       13       14       37 </v>
   <v type="int" >        8        6        7       13       37 </v>
   <v type="int" >        4        6        7       30       37 </v>
   <v type="int" >        4        7       14       37       38 </v>
   <v type="int" >        8        7       31       37       38 </v>
   <v type="int" >        8        7       30       31       37 </v>
   <v type="int" >        8        8       14       14       38 </v>
   <v type="int" >        8        7        8       14       38 </v>
   <v type="int" >        4        7        8       31       38 </v>
   <v type="int" >        4        8       14       38       38 </v>
   <v type="int" >        4        8       32       38       38 </v>
   <v type="int" >        8        8       31       32       38 </v>
   <v type="int" >        8        7       13       14       38 </v>
   <v type="int" >        4        7        8       32       38 </v>
   <v type="int" >        4        7       13       37       38 </v>
   <v type="int" >        8        7       31       32       38 </v>
   <v type="int" >        8        6       12       13       37 </v>
   <v type="int" >        4        6        7       31       37 </v>
   <v type="int" >        4        6       12       36       37 </v>
   <v type="int" >        8        6       30       31       37 </v>
   <v type="int" >        8        5       11       12       36 </v>
   <v type="int" >        4        5        6       30       36 </v>
   <v type="int" >        4        5       11       35       36 </v>
   <v type="int" >        8        5       29       30       36 </v>
   <v type="int" >        8        4       10       11       35 </v>
   <v type="int" >        4        4        5       29       35 </v>
   <v type="int" >        4        4       10       34       35 </v>
   <v type="int" >        8        4       28       29       35 </v>
   <v type="int" >        8        3        9       10       34 </v>
   <v type="int" >        4        3        4       28       34 </v>
   <v type="int" >        4        3        9       33       34 </v>
   <v type="int" >        8        3       27       28       34 </v>
   <v type="int" >        4        2        2        9       33 </v>
   <v type="int" >        4        2        3       27       33 </v>
   <v type="int" >        4        2        2       26       33 </v>
   <v type="int" >        8        2       26       27       33 </v>
   <v type="int" >        4        1        2       26       26 </v>
   <v type="int" >        4        1       25       26       26 </v>
   <v type="int" >        8        3        9       10       27 </v>
   <v type="int" >        8        2        3        9       27 </v>
   <v type="int" >        4        2        9       26       27 </v>
   <v type="int" >        4        9       10       27       34 </v>
   <v type="int" >        8        9       27       33       34 </v>
   <v type="int" >        8        9       26       27       33 </v>
   <v type="int" >        8       10       10       15       34 </v>
   <v type="int" >        8        9       10       10       34 </v>
   <v type="int" >        4        9       10       33       34 </v>
   <v type="int" >        4       10       15       34       39 </v>
   <v type="int" >        8       10       34       34       39 </v>
   <v type="int" >        8       10       33       34       34 </v>
   <v type="int" >        8       11       15       16       39 </v>
   <v type="int" >        8       10       11       15       39 </v>
   <v type="int" >        4       10       11       34       39 </v>
   <v type="int" >        4       11       16       39       40 </v>
   <v type="int" >        8       11       35       39       40 </v>
   <v type="int" >        8       11       34       35       39 </v>
   <v type="int" >        8       12       16       17       40 </v>
   <v type="int" >        8       11       12       16       40 </v>
   <v type="int" >        4       11       12       35       40 </v>
   <v type="int" >        4       12       17       40       41 </v>
   <v type="int" >        8       12       36       40       41 </v>
   <v type="int" >        8       12       35       36       40 </v>
   <v type="int" >        8       13       17       18       41 </v>
   <v type="int" >        8       12       13       17       41 </v>
   <v type="int" >        4       12       13       36       41 </v>
   <v type="int" >        4       13       18       41       42 </v>
   <v type="int" >        8       13       37       41       42 </v>
   <v type="int" >        8       13       36       37       41 </v>
   <v type="int" >        8       14       18       19       42 </v>
   <v type="int" >        8       13       14       18       42 </v>
   <v type="int" >        4       13       14       37       42 </v>
   <v type="int" >        4       14       19       42       43 </v>
   <v type="int" >        8       14       38       42       43 </v>
   <v type="int" >        8       14       37       38       42 </v>
   <v type="int" >        8       14       18       19       43 </v>
   <v type="int" >        4       14       14       19       43 </v>
   <v type="int" >        4       14       14       38       43 </v>
   <v type="int" >        4       14       18       42       43 </v>
   <v type="int" >        8       14       38       38       43 </v>
   <v type="int" >        8       13       17       18       42 </v>
   <v type="int" >        4       13       14       38       42 </v>
   <v type="int" >        4       13       17       41       42 </v>
   <v type="int" >        8       13       37       38       42 </v>
   <v type="int" >        8       12       16       17       41 </v>
   <v type="int" >        4       12       13       37       41 </v>
   <v type="int" >        4       12       16       40       41 </v>
   <v type="int" >        8       12       36       37       41 </v>
   <v type="int" >        8       11       15       16       40 </v>
   <v type="int" >        4       11       12       36       40 </v>
   <v type="int" >        4       11       15       39       40 </v>
   <v type="int" >        8       11       35       36       40 </v>
   <v type="int" >        4       10       10       15       39 </v>
   <v type="int" >        4       10       11       35       39 </v>
   <v type="int" >        4       10       10       34       39 </v>
   <v type="int" >        8       10       34       35       39 </v>
   <v type="int" >        4        9       10       34       34 </v>
   <v type="int" >        4        3        9       27       34 </v>
   <v type="int" >        4        9       33       34       34 </v>
   <v type="int" >        4        2        9       27       33 </v>
   <v type="int" >        8        4       10       11       28 </v>
   <v type="int" >        8        3        4       10       28 </v>
   <v type="int" >        4        3       10       27       28 </v>
   <v type="int" >        4       10       11       28       35 </v>
   <v type="int" >        8       10       28       34       35 </v>
   <v type="int" >        8       10       27       28       34 </v>
   <v type="int" >        8       11       15       16       35 </v>
   <v type="int" >        8       10       11       15       35 </v>
   <v type="int" >        4       10       15       34       35 </v>
   <v type="int" >        4       15       16       35       40 </v>
   <v type="int" >        8       15       35       39       40 </v>
   <v type="int" >        8       15       34       35       39 </v>
   <v type="int" >        8       16       16       20       40 </v>
   <v type="int" >        8       15       16       16       40 </v>
   <v type="int" >        4       15       16       39       40 </v>
   <v type="int" >        4       16       20       40       44 </v>
   <v type="int" >        8       16       40       40       44 </v>
   <v type="int" >        8       16       39       40       40 </v>
   <v type="int" >        8       17       20       21       44 </v>
   <v type="int" >        8       16       17       20       44 </v>
   <v type="int" >        4       16       17       40       44 </v>
   <v type="int" >        4       17       21       44       45 </v>
   <v type="int" >        8       17       41       44       45 </v>
   <v type="int" >        8       17       40       41       44 </v>
   <v type="int" >        8       18       21       22       45 </v>
   <v type="int" >        8       17       18       21       45 </v>
   <v type="int" >        4       17       18       41       45 </v>
   <v type="int" >        4       18       22       45       46 </v>
   <v type="int" >        8       18       42       45       46 </v>
   <v type="int" >        8       18       41       42       45 </v>
   <v type="int" >        8       19       22       22       46 </v>
   <v type="int" >        8       18       19       22       46 </v>
   <v type="int" >        4       18       19       42       46 </v>
   <v type="int" >        4       19       22       46       46 </v>
   <v type="int" >        4       19       43       46       46 </v>
   <v type="int" >        8       19       42       43       46 </v>
   <v type="int" >        8       18       21       22       46 </v>
   <v type="int" >        4       18       19       43       46 </v>
   <v type="int" >        4       18       21       45       46 </v>
   <v type="int" >        8       18       42       43       46 </v>
   <v type="int" >        8       17       20       21       45 </v>
   <v type="int" >        4       17       18       42       45 </v>
   <v type="int" >        4       17       20       44       45 </v>
   <v type="int" >        8       17       41       42       45 </v>
   <v type="int" >        4       16       16       20       44 </v>
   <v type="int" >        4       16       17       41       44 </v>
   <v type="int" >        4       16       16       40       44 </v>
   <v type="int" >        8       16       40       41       44 </v>
   <v type="int" >        4       15       16       40       40 </v>
   <v type="int" >        4       11       15       35       40 </v>
   <v type="int" >        4       15       39       40       40 </v>
   <v type="int" >        4       10       15       35       39 </v>
   <v type="int" >        4        4       10       28       35 </v>
   <v type="int" >        4        3       10       28       34 </v>
   <v type="int" >        8        5       11       12       29 </v>
   <v type="int" >        8        4        5       11       29 </v>
   <v type="int" >        4        4       11       28       29 </v>
   <v type="int" >        4       11       12       29       36 </v>
   <v type="int" >        8       11       29       35       36 </v>
   <v type="int" >        8       11       28       29       35 </v>
   <v type="int" >        8       12       16       17       36 </v>
   <v type="int" >        8       11       12       16       36 </v>
   <v type="int" >        4       11       16       35       36 </v>
   <v type="int" >        4       16       17       36       41 </v>
   <v type="int" >        8       16       36       40       41 </v>
   <v type="int" >        8       16       35       36       40 </v>
   <v type="int" >        8       17       20       21       41 </v>
   <v type="int" >        8       16       17       20       41 </v>
   <v type="int" >        4       16       20       40       41 </v>
   <v type="int" >        4       20       21       41       45 </v>
   <v type="int" >        8       20       41       44       45 </v>
   <v type="int" >        8       20       40       41       44 </v>
   <v type="int" >        8       21       21       23       45 </v>
   <v type="int" >        8       20       21       21       45 </v>
   <v type="int" >        4       20       21       44       45 </v>
   <v type="int" >        4       21       23       45       47 </v>
   <v type="int" >        8       21       45       45       47 </v>
   <v type="int" >        8       21       44       45       45 </v>
   <v type="int" >        8       22       23       24       47 </v>
   <v type="int" >        8       21       22       23       47 </v>
   <v type="int" >        4       21       22       45       47 </v>
   <v type="int" >        4       22       24       47       48 </v>
   <v type="int" >        8       22       46       47       48 </v>
   <v type="int" >        8       22       45       46       47 </v>
   <v type="int" >        8       22       23       24       48 </v>
   <v type="int" >        4       22       22       24       48 </v>
   <v type="int" >        4       22       22       46       48 </v>
   <v type="int" >        4       22       23       47       48 </v>
   <v type="int" >        8       22       46       46       48 </v>
   <v type="int" >        4       21       21       23       47 </v>
   <v type="int" >        4       21       22       46       47 </v>
   <v type="int" >        4       21       21       45       47 </v>
   <v type="int" >        8       21       45       46       47 </v>
   <v type="int" >        4       20       21       45       45 </v>
   <v type="int" >        4       17       20       41       45 </v>
   <v type="int" >        4       20       44       45       45 </v>
   <v type="int" >        4       16       20       41       44 </v>
   <v type="int" >        4       12       16       36       41 </v>
   <v type="int" >        4       11       16       36       40 </v>
   <v type="int" >        4        5       11       29       36 </v>
   <v type="int" >        4        4       11       29       35 </v>
   <v type="int" >        8        6       12       13       30 </v>
   <v type="int" >        8        5        6       12       30 </v>
   <v type="int" >        4        5       12       29       30 </v>
   <v type="int" >        4       12       13       30       37 </v>
   <v type="int" >        8       12       30       36       37 </v>
   <v type="int" >        8       12       29       30       36 </v>
   <v type="int" >        8       13       17       18       37 </v>
   <v type="int" >        8       12       13       17       37 </v>
   <v type="int" >        4       12       17       36       37 </v>
   <v type="int" >        4       17       18       37       42 </v>
   <v type="int" >        8       17       37       41       42 </v>
   <v type="int" >        8       17       36       37       41 </v>
   <v type="int" >        8       18       21       22       42 </v>
   <v type="int" >        8       17       18       21       42 </v>
   <v type="int" >        4       17       21       41       42 </v>
   <v type="int" >        4       21       22       42       46 </v>
   <v type="int" >        8       21       42       45       46 </v>
   <v type="int" >        8       21       41       42       45 </v>
   <v type="int" >        8       22       23       24       46 </v>
   <v type="int" >        8       21       22       23       46 </v>
   <v type="int" >        4       21       23       45       46 </v>
   <v type="int" >        4       23       24       46       48 </v>
   <v type="int" >        8       23       46       47       48 </v>
   <v type="int" >        8       23       45       46       47 </v>
   <v type="int" >        4       24       24       24       48 </v>
   <v type="int" >        8       23       24       24       48 </v>
   <v type="int" >        4       23       24       47       48 </v>
   <v type="int" >        4       24       24       48       48 </v>
   <v type="int" >        4       24       48       48       48 </v>
   <v type="int" >        8       24       47       48       48 </v>
   <v type="int" >        4       23       24       48       48 </v>
   <v type="int" >        4       22       23       46       48 </v>
   <v type="int" >        4       23       47       48       48 </v>
   <v type="int" >        4       21       23       46       47 </v>
   <v type="int" >        4       18       21       42       46 </v>
   <v type="int" >        4       17       21       42       45 </v>
   <v type="int" >        4       13       17       37       42 </v>
   <v type="int" >        4       12       17       37       41 </v>
   <v type="int" >        4        6       12       30       37 </v>
   <v type="int" >        4        5       12       30       36 </v>
   <v type="int" >        8        7       13       14       31 </v>
   <v type="int" >        8        6        7       13       31 </v>
   <v type="int" >        4        6       13       30       31 </v>
   <v type="int" >        4       13       14       31       38 </v>
   <v type="int" >        8       13       31       37       38 </v>
   <v type="int" >        8       13       30       31       37 </v>
   <v type="int" >        8       14       18       19       38 </v>
   <v type="int" >        8       13       14       18       38 </v>
   <v type="int" >        4       13       18       37       38 </v>
   <v type="int" >        4       18       19       38       43 </v>
   <v type="int" >        8       18       38       42       43 </v>
   <v type="int" >        8       18       37       38       42 </v>
   <v type="int" >        4       19       22       22       43 </v>
   <v type="int" >        8       18       19       22       43 </v>
   <v type="int" >        4       18       22       42       43 </v>
   <v type="int" >        4       22       22       43       46 </v>
   <v type="int" >        8       22       43       46       46 </v>
   <v type="int" >        8       22       42       43       46 </v>
   <v type="int" >        8       22       22       24       46 </v>
   <v type="int" >        4       22       24       46       46 </v>
   <v type="int" >        4       23       24       46       47 </v>
   <v type="int" >        8       24       46       47       48 </v>
   <v type="int" >        4       24       46       46       48 </v>
   <v type="int" >        4       23       24       24       47 </v>
   <v type="int" >        4       24       24       47       48 </v>
   <v type="int" >        4       22       24       46       47 </v>
   <v type="int" >        4       22       24       46       48 </v>
   <v type="int" >        4       19       22       43       46 </v>
   <v type="int" >        4       18       22       43       46 </v>
   <v type="int" >        4       14       18       38       43 </v>
   <v type="int" >        4       13       18       38       42 </v>
   <v type="int" >        4        7       13       31       38 </v>
   <v type="int" >        4        6       13       31       37 </v>
   <v type="int" >        4        8       14       14       32 </v>
   <v type="int" >        8        7        8       14       32 </v>
   <v type="int" >        4        7       14       31       32 </v>
   <v type="int" >        4       14       14       32       38 </v>
   <v type="int" >        8       14       32       38       38 </v>
   <v type="int" >        8       14       31       32       38 </v>
   <v type="int" >        8       14       14       19       38 </v>
   <v type="int" >        4       14       19       38       38 </v>
   <v type="int" >        4       18       19       38       42 </v>
   <v type="int" >        8       19       38       42       43 </v>
   <v type="int" >        4       19       38       38       43 </v>
   <v type="int" >        8       18       19       22       42 </v>
   <v type="int" >        4       19       22       42       43 </v>
   <v type="int" >        4       21       22       42       45 </v>
   <v type="int" >        8       22       42       45       46 </v>
   <v type="int" >        8       21       22       23       45 </v>
   <v type="int" >        4       22       23       45       46 </v>
   <v type="int" >        4       21       23       45       45 </v>
   <v type="int" >        4       23       45       45       47 </v>
   <v type="int" >        4       22       23       45       47 </v>
   <v type="int" >        4       18       22       42       45 </v>
   <v type="int" >        4       19       22       42       46 </v>
   <v type="int" >        4       14       19       38       42 </v>
   <v type="int" >        4       14       19       38       43 </v>
   <v type="int" >        4        8       14       32       38 </v>
   <v type="int" >        4        7       14       32       38 </v>
   <v type="int" >        8        7        8       14       31 </v>
   <v type="int" >        4        8       14       31       32 </v>
   <v type="int" >        4       13       14       31       37 </v>
   <v type="int" >        8       14       31       37       38 </v>
   <v type="int" >        8       13       14       18       37 </v>
   <v type="int" >        4       14       18       37       38 </v>
   <v type="int" >        4       17       18       37       41 </v>
   <v type="int" >        8       18       37       41       42 </v>
   <v type="int" >        8       17       18       21       41 </v>
   <v type="int" >        4       18       21       41       42 </v>
   <v type="int" >        4       20       21       41       44 </v>
   <v type="int" >        8       21       41       44       45 </v>
   <v type="int" >        4       20       21       21       44 </v>
   <v type="int" >        4       21       21       44       45 </v>
   <v type="int" >        4       17       21       41       44 </v>
   <v type="int" >        4       18       21       41       45 </v>
   <v type="int" >        4       13       18       37       41 </v>
   <v type="int" >        4       14       18       37       42 </v>
   <v type="int" >        4        7       14       31       37 </v>
   <v type="int" >        4        8       14       31       38 </v>
   <v type="int" >        8        6        7       13       30 </v>
   <v type="int" >        4        7       13       30       31 </v>
   <v type="int" >        4       12       13       30       36 </v>
   <v type="int" >        8       13       30       36       37 </v>
   <v type="int" >        8       12       13       17       36 </v>
   <v type="int" >        4       13       17       36       37 </v>
   <v type="int" >        4       16       17       36       40 </v>
   <v type="int" >        8       17       36       40       41 </v>
   <v type="int" >        8       16       17       20       40 </v>
   <v type="int" >        4       17       20       40       41 </v>
   <v type="int" >        4       16       20       40       40 </v>
   <v type="int" >        4       20       40       40       44 </v>
   <v type="int" >        4       17       20       40       44 </v>
   <v type="int" >        4       12       17       36       40 </v>
   <v type="int" >        4       13       17       36       41 </v>
   <v type="int" >        4        6       13       30       36 </v>
   <v type="int" >        4        7       13       30       37 </v>
   <v type="int" >        8        5        6       12       29 </v>
   <v type="int" >        4        6       12       29       30 </v>
   <v type="int" >        4       11       12       29       35 </v>
   <v type="int" >        8       12       29       35       36 </v>
   <v type="int" >        8       11       12       16       35 </v>
   <v type="int" >        4       12       16       35       36 </v>
   <v type="int" >        4       15       16       35       39 </v>
   <v type="int" >        8       16       35       39       40 </v>
   <v type="int" >        4       15       16       16       39 </v>
   <v type="int" >        4       16       16       39       40 </v>
   <v type="int" >        4       11       16       35       39 </v>
   <v type="int" >        4       12       16       35       40 </v>
   <v type="int" >        4        5       12       29       35 </v>
   <v type="int" >        4        6       12       29       36 </v>
   <v type="int" >        8        4        5       11       28 </v>
   <v type="int" >        4        5       11       28       29 </v>
   <v type="int" >        4       10       11       28       34 </v>
   <v type="int" >        8       11       28       34       35 </v>
   <v type="int" >        8       10       11       15       34 </v>
   <v type="int" >        4       11       15       34       35 </v>
   <v type="int" >        4       10       15       34       34 </v>
   <v type="int" >        4       15       34       34       39 </v>
   <v type="int" >        4       11       15       34       39 </v>
   <v type="int" >        4        4       11       28       34 </v>
   <v type="int" >        4        5       11       28       35 </v>
   <v type="int" >        8        3        4       10       27 </v>
   <v type="int" >        4        4       10       27       28 </v>
   <v type="int" >        4        9       10       27       33 </v>
   <v type="int" >        8       10       27       33       34 </v>
   <v type="int" >        4        9       10       10       33 </v>
   <v type="int" >        4       10       10       33       34 </v>
   <v type="int" >        4        3       10       27       33 </v>
   <v type="int" >        4        4       10       27       34 </v>
   <v type="int" >        8        2        3        9       26 </v>
   <v type="int" >        4        3        9       26       27 </v>
   <v type="int" >        4        2        9       26       26 </v>
   <v type="int" >        4        9       26       26       33 </v>
   <v type="int" >        4        3        9       26       33 </v>
   <v type="int" >        4        1        2        2       25 </v>
   <v type="int" >        4        2        2       25       26 </v>
   <v type="int" >       12       26       26       26       33 </v>
   <v type="int" >       12       25       26       26       26 </v>
   <v type="int" >        6       25       25       26       26 </v>
   <v type="int" >        6       26       26       33       33 </v>
   <v type="int" >       12       27       33       33       34 </v>
   <v type="int" >       12       26       27       33       33 </v>
   <v type="int" >       12       26       26       27       33 </v>
   <v type="int" >       12       27       33       34       34 </v>
   <v type="int" >       12       27       27       33       34 </v>
   <v type="int" >       12       26       27       27       33 </v>
   <v type="int" >       12       28       34       34       35 </v>
   <v type="int" >       12       27       28       34       34 </v>
   <v type="int" >       12       27       27       28       34 </v>
   <v type="int" >       12       28       34       35       35 </v>
   <v type="int" >       12       28       28       34       35 </v>
   <v type="int" >       12       27       28       28       34 </v>
   <v type="int" >       12       29       35       35       36 </v>
   <v type="int" >       12       28       29       35       35 </v>
   <v type="int" >       12       28       28       29       35 </v>
   <v type="int" >       12       29       35       36       36 </v>
   <v type="int" >       12       29       29       35       36 </v>
   <v type="int" >       12       28       29       29       35 </v>
   <v type="int" >       12       30       36       36       37 </v>
   <v type="int" >       12       29       30       36       36 </v>
   <v type="int" >       12       29       29       30       36 </v>
   <v type="int" >       12       30       36       37       37 </v>
   <v type="int" >       12       30       30       36       37 </v>
   <v type="int" >       12       29       30       30       36 </v>
   <v type="int" >       12       31       37       37       38 </v>
   <v type="int" >       12       30       31       37       37 </v>
   <v type="int" >       12       30       30       31       37 </v>
   <v type="int" >       12       31       37       38       38 </v>
   <v type="int" >       12       31       31       37       38 </v>
   <v type="int" >       12       30       31       31       37 </v>
   <v type="int" >       12       32       38       38       38 </v>
   <v type="int" >       12       31       32       38       38 </v>
   <v type="int" >       12       31       31       32       38 </v>
   <v type="int" >        6       32       32       38       38 </v>
   <v type="int" >       12       31       32       32       38 </v>
   <v type="int" >       12       34       34       34       39 </v>
   <v type="int" >       12       33       34       34       34 </v>
   <v type="int" >        6       33       33       34       34 </v>
   <v type="int" >        6       34       34       39       39 </v>
   <v type="int" >       12       35       39       39       40 </v>
   <v type="int" >       12       34       35       39       39 </v>
   <v type="int" >       12       34       34       35       39 </v>
   <v type="int" >       12       35       39       40       40 </v>
   <v type="int" >       12       35       35       39       40 </v>
   <v type="int" >       12       34       35       35       39 </v>
   <v type="int" >       12       36       40       40       41 </v>
   <v type="int" >       12       35       36       40       40 </v>
   <v type="int" >       12       35       35       36       40 </v>
   <v type="int" >       12       36       40       41       41 </v>
   <v type="int" >       12       36       36       40       41 </v>
   <v type="int" >       12       35       36       36       40 </v>
   <v type="int" >       12       37       41       41       42 </v>
   <v type="int" >       12       36       37       41       41 </v>
   <v type="int" >       12       36       36       37       41 </v>
   <v type="int" >       12       37       41       42       42 </v>
   <v type="int" >       12       37       37       41       42 </v>
   <v type="int" >       12       36       37       37       41 </v>
   <v type="int" >       12       38       42       42       43 </v>
   <v type="int" >       12       37       38       42       42 </v>
   <v type="int" >       12       37       37       38       42 </v>
   <v type="int" >       12       38       42       43       43 </v>
   <v type="int" >       12       38       38       42       43 </v>
   <v type="int" >       12       37       38       38       42 </v>
   <v type="int" >        6       38       38       43       43 </v>
   <v type="int" >       12       38       38       38       43 </v>
   <v type="int" >       12       40       40       40       44 </v>
   <v type="int" >       12       39       40       40       40 </v>
   <v type="int" >        6       39       39       40       40 </v>
   <v type="int" >        6       40       40       44       44 </v>
   <v type="int" >       12       41       44       44       45 </v>
   <v type="int" >       12       40       41       44       44 </v>
   <v type="int" >       12       40       40       41       44 </v>
   <v type="int" >       12       41       44       45       45 </v>
   <v type="int" >       12       41       41       44       45 </v>
   <v type="int" >       12       40       41       41       44 </v>
   <v type="int" >       12       42       45       45       46 </v>
   <v type="int" >       12       41       42       45       45 </v>
   <v type="int" >       12       41       41       42       45 </v>
   <v type="int" >       12       42       45       46       46 </v>
   <v type="int" >       12       42       42       45       46 </v>
   <v type="int" >       12       41       42       42       45 </v>
   <v type="int" >       12       43       46       46       46 </v>
   <v type="int" >       12       42       43       46       46 </v>
   <v type="int" >       12       42       42       43       46 </v>
   <v type="int" >        6       43       43       46       46 </v>
   <v type="int" >       12       42       43       43       46 </v>
   <v type="int" >       12       45       45       45       47 </v>
   <v type="int" >       12       44       45       45       45 </v>
   <v type="int" >        6       44       44       45       45 </v>
   <v type="int" >        6       45       45       47       47 </v>
   <v type="int" >       12       46       47       47       48 </v>
   <v type="int" >       12       45       46       47       47 </v>
   <v type="int" >       12       45       45       46       47 </v>
   <v type="int" >       12       46       47       48       48 </v>
   <v type="int" >       12       46       46       47       48 </v>
   <v type="int" >       12       45       46       46       47 </v>
   <v type="int" >        6       46       46       48       48 </v>
   <v type="int" >       12       46       46       46       48 </v>
   <v type="int" >        6       48       48       48       48 </v>
   <v type="int" >       12       47       48       48       48 </v>
   <v type="int" >        6       47       47       48       48 </v>
  </varray>
  <i name="volumeweight">      0.00028345 </i>
 </kpoints>
 <parameters>
  <separator name="general" >
   <i type="string" name="SYSTEM">unknown system</i>
   <i type="logical" name="LCOMPAT"> F  </i>
  </separator>
  <separator name="electronic" >
   <i type="string" name="PREC">normal</i>
   <i name="ENMAX">    450.00000000</i>
   <i name="ENAUG">    345.27800000</i>
   <i name="EDIFF">      0.00001000</i>
   <i type="int" name="IALGO">    68</i>
   <i type="int" name="IWAVPR">    10</i>
   <i type="int" name="NBANDS">    22</i>
   <i name="NELECT">     36.00000000</i>
   <i type="int" name="TURBO">     0</i>
   <i type="int" name="IRESTART">     0</i>
   <i type="int" name="NREBOOT">     0</i>
   <i type="int" name="NMIN">     0</i>
   <i name="EREF">      0.00000000</i>
   <separator name="electronic smearing" >
    <i type="int" name="ISMEAR">    -5</i>
    <i name="SIGMA">      0.20000000</i>
    <i name="KSPACING">      0.50000000</i>
    <i type="logical" name="KGAMMA"> T  </i>
   </separator>
   <separator name="electronic projectors" >
    <i type="logical" name="LREAL"> F  </i>
    <v name="ROPT">      0.00000000      0.00000000</v>
    <i type="int" name="LMAXPAW">  -100</i>
    <i type="int" name="LMAXMIX">     2</i>
    <i type="logical" name="NLSPLINE"> F  </i>
   </separator>
   <separator name="electronic startup" >
    <i type="int" name="ISTART">     0</i>
    <i type="int" name="ICHARG">     2</i>
    <i type="int" name="INIWAV">     1</i>
   </separator>
   <separator name="electronic spin" >
    <i type="int" name="ISPIN">     1</i>
    <i type="logical" name="LNONCOLLINEAR"> F  </i>
    <v name="MAGMOM">      1.00000000      1.00000000      1.00000000      1.00000000      1.00000000      1.00000000</v>
    <i name="NUPDOWN">     -1.00000000</i>
    <i type="logical" name="LSORBIT"> F  </i>
    <v name="SAXIS">      0.00000000      0.00000000      1.00000000</v>
    <i type="logical" name="LSPIRAL"> F  </i>
    <v name="QSPIRAL">      0.00000000      0.00000000      0.00000000</v>
    <i type="logical" name="LZEROZ"> F  </i>
   </separator>
   <separator name="electronic exchange-correlation" >
    <i type="logical" name="LASPH"> F  </i>
    <i type="logical" name="LMETAGGA"> F  </i>
   </separator>
   <separator name="electronic convergence" >
    <i type="int" name="NELM">    60</i>
    <i type="int" name="NELMDL">     0</i>
    <i type="int" name="NELMIN">     4</i>
    <i name="ENINI">    450.00000000</i>
    <separator name="electronic convergence detail" >
     <i type="logical" name="LDIAG"> T  </i>
     <i type="logical" name="LSUBROT"> F  </i>
     <i name="WEIMIN">      0.00000000</i>
     <i name="EBREAK">      0.00000011</i>
     <i name="DEPER">      0.30000000</i>
     <i type="int" name="NRMM">     4</i>
     <i name="TIME">      0.40000000</i>
    </separator>
   </separator>
   <separator name="electronic mixer" >
    <i name="AMIX">      0.40000000</i>
    <i name="BMIX">      1.00000000</i>
    <i name="AMIN">      0.10000000</i>
    <i name="AMIX_MAG">      1.60000000</i>
    <i name="BMIX_MAG">      1.00000000</i>
    <separator name="electronic mixer details" >
     <i type="int" name="IMIX">     4</i>
     <i type="logical" name="MIXFIRST"> F  </i>
     <i type="int" name="MAXMIX">   -45</i>
     <i name="WC">    100.00000000</i>
     <i type="int" name="INIMIX">     1</i>
     <i type="int" name="MIXPRE">     1</i>
     <i type="int" name="MREMOVE">     5</i>
    </separator>
   </separator>
   <separator name="electronic dipolcorrection" >
    <i type="logical" name="LDIPOL"> F  </i>
    <i type="logical" name="LMONO"> F  </i>
    <i type="int" name="IDIPOL">     0</i>
    <i name="EPSILON">      1.00000000</i>
    <v name="DIPOL">   -100.00000000   -100.00000000   -100.00000000</v>
    <i name="EFIELD">      0.00000000</i>
   </separator>
  </separator>
  <separator name="grids" >
   <i type="int" name="NGX">    18</i>
   <i type="int" name="NGY">    18</i>
   <i type="int" name="NGZ">    80</i>
   <i type="int" name="NGXF">    36</i>
   <i type="int" name="NGYF">    36</i>
   <i type="int" name="NGZF">   160</i>
   <i type="logical" name="ADDGRID"> F  </i>
  </separator>
  <separator name="ionic" >
   <i type="int" name="NSW">     0</i>
   <i type="int" name="IBRION">    -1</i>
   <i type="int" name="MDALGO">     0</i>
   <i type="int" name="ISIF">     2</i>
   <i name="PSTRESS">      0.00000000</i>
   <i name="EDIFFG">      0.00010000</i>
   <i type="int" name="NFREE">     0</i>
   <i name="POTIM">      0.50000000</i>
   <i name="SMASS">     -3.00000000</i>
   <i name="SCALEE">      1.00000000</i>
  </separator>
  <separator name="ionic md" >
   <i name="TEBEG">      0.00010000</i>
   <i name="TEEND">      0.00010000</i>
   <i type="int" name="NBLOCK">     1</i>
   <i type="int" name="KBLOCK">     1</i>
   <i type="int" name="NPACO">   256</i>
   <i name="APACO">     16.00000000</i>
  </separator>
  <separator name="symmetry" >
   <i type="int" name="ISYM">     2</i>
   <i name="SYMPREC">      0.00001000</i>
  </separator>
  <separator name="dos" >
   <i type="int" name="LORBIT">     0</i>
   <v name="RWIGS">     -1.00000000     -1.00000000</v>
   <i type="int" name="NEDOS">   301</i>
   <i name="EMIN">     10.00000000</i>
   <i name="EMAX">    -10.00000000</i>
   <i name="EFERMI">      0.00000000</i>
  </separator>
  <separator name="writing" >
   <i type="int" name="NWRITE">     2</i>
   <i type="logical" name="LWAVE"> F  </i>
   <i type="logical" name="LDOWNSAMPLE"> F  </i>
   <i type="logical" name="LCHARG"> T  </i>
   <i type="logical" name="LPARD"> F  </i>
   <i type="logical" name="LVTOT"> F  </i>
   <i type="logical" name="LVHAR"> F  </i>
   <i type="logical" name="LELF"> F  </i>
   <i type="logical" name="LOPTICS"> F  </i>
   <v name="STM">      0.00000000      0.00000000      0.00000000      0.00000000      0.00000000      0.00000000      0.00000000</v>
  </separator>
  <separator name="performance" >
   <i type="int" name="NPAR">     2</i>
   <i type="int" name="NSIM">     4</i>
   <i type="int" name="NBLK">    -1</i>
   <i type="logical" name="LPLANE"> T  </i>
   <i type="logical" name="LSCALAPACK"> T  </i>
   <i type="logical" name="LSCAAWARE"> F  </i>
   <i type="logical" name="LSCALU"> F  </i>
   <i type="logical" name="LASYNC"> F  </i>
   <i type="logical" name="LORBITALREAL"> F  </i>
  </separator>
  <separator name="miscellaneous" >
   <i type="int" name="IDIOT">     3</i>
   <i type="int" name="ISPECIAL">     0</i>
   <i type="logical" name="LMUSIC"> F  </i>
   <v name="POMASS">     95.94000000     32.06600000</v>
   <v name="DARWINR">      0.00000000      0.00000000</v>
   <v name="DARWINV">      1.00000000      1.00000000</v>
   <i type="logical" name="LCORR"> T  </i>
  </separator>
  <i type="logical" name="GGA_COMPAT"> T  </i>
  <i type="logical" name="LBERRY"> F  </i>
  <i type="int" name="ICORELEVEL">     0</i>
  <i type="logical" name="LDAU"> F  </i>
  <i type="int" name="I_CONSTRAINED_M">     0</i>
  <separator name="electronic exchange-correlation" >
   <i type="string" name="GGA">--</i>
   <i type="int" name="VOSKOWN">     0</i>
   <i type="logical" name="LHFCALC"> F  </i>
   <i type="string" name="PRECFOCK"></i>
   <i type="logical" name="LSYMGRAD"> F  </i>
   <i type="logical" name="LHFONE"> F  </i>
   <i type="logical" name="LRHFCALC"> F  </i>
   <i type="logical" name="LTHOMAS"> F  </i>
   <i type="logical" name="LMODELHF"> F  </i>
   <i name="ENCUT4O">     -1.00000000</i>
   <i type="int" name="EXXOEP">     0</i>
   <i type="int" name="FOURORBIT">     0</i>
   <i name="AEXX">      0.00000000</i>
   <i name="HFALPHA">      0.00000000</i>
   <i name="MCALPHA">      0.00000000</i>
   <i name="ALDAX">      1.00000000</i>
   <i name="AGGAX">      1.00000000</i>
   <i name="ALDAC">      1.00000000</i>
   <i name="AGGAC">      1.00000000</i>
   <i type="int" name="NKREDX">     1</i>
   <i type="int" name="NKREDY">     1</i>
   <i type="int" name="NKREDZ">     1</i>
   <i type="logical" name="SHIFTRED"> F  </i>
   <i type="logical" name="ODDONLY"> F  </i>
   <i type="logical" name="EVENONLY"> F  </i>
   <i type="int" name="LMAXFOCK">     0</i>
   <i type="int" name="NMAXFOCKAE">     0</i>
   <i type="logical" name="LFOCKAEDFT"> F  </i>
   <i name="HFSCREEN">      0.00000000</i>
   <i name="HFSCREENC">      0.00000000</i>
   <i type="int" name="NBANDSGWLOW">     0</i>
  </separator>
  <separator name="vdW DFT" >
   <i type="logical" name="LUSE_VDW"> F  </i>
   <i name="Zab_VDW">     -0.84910000</i>
   <i name="PARAM1">      0.12340000</i>
   <i name="PARAM2">      1.00000000</i>
   <i name="PARAM3">      0.00000000</i>
  </separator>
  <separator name="model GW" >
   <i type="int" name="MODEL_GW">     0</i>
   <i name="MODEL_EPS0">     13.11510680</i>
   <i name="MODEL_ALPHA">      1.00000000</i>
  </separator>
  <separator name="linear response parameters" >
   <i type="logical" name="LEPSILON"> F  </i>
   <i type="logical" name="LRPA"> F  </i>
   <i type="logical" name="LNABLA"> F  </i>
   <i type="logical" name="LVEL"> F  </i>
   <i type="int" name="KINTER">     0</i>
   <i name="CSHIFT">      0.10000000</i>
   <i name="OMEGAMAX">     -1.00000000</i>
   <i name="DEG_THRESHOLD">      0.00200000</i>
   <i name="RTIME">     -0.10000000</i>
   <i name="WPLASMAI">      0.00000000</i>
   <v name="DFIELD">      0.00000000      0.00000000      0.00000000</v>
   <v name="WPLASMA">      0.00000000      0.00000000      0.00000000      0.00000000      0.00000000      0.00000000      0.00000000      0.00000000      0.00000000</v>
  </separator>
  <separator name="orbital magnetization" >
   <i type="logical" name="NUCIND"> F  </i>
   <v name="MAGPOS">      0.00000000      0.00000000      0.00000000</v>
   <i type="logical" name="LNICSALL"> T  </i>
   <i type="logical" name="ORBITALMAG"> F  </i>
   <i type="logical" name="LMAGBLOCH"> F  </i>
   <i type="logical" name="LCHIMAG"> F  </i>
   <i type="logical" name="LGAUGE"> T  </i>
   <i type="int" name="MAGATOM">     0</i>
   <v name="MAGDIPOL">      0.00000000      0.00000000      0.00000000</v>
   <v name="AVECCONST">      0.00000000      0.00000000      0.00000000</v>
  </separator>
  <separator name="response functions" >
   <i type="logical" name="LADDER"> F  </i>
   <i type="logical" name="LRPAFORCE"> F  </i>
   <i type="logical" name="LFXC"> F  </i>
   <i type="logical" name="LHARTREE"> T  </i>
   <i type="int" name="IBSE">     0</i>
   <v type="int" name="KPOINT">    -1     0     0     0</v>
   <i type="logical" name="LTCTE"> F  </i>
   <i type="logical" name="LTETE"> F  </i>
   <i type="logical" name="LTRIPLET"> F  </i>
   <i type="logical" name="LFXCEPS"> F  </i>
   <i type="logical" name="LFXHEG"> F  </i>
   <i type="int" name="NATURALO">     2</i>
   <i type="logical" name="L2ORDER"> F  </i>
   <i type="logical" name="LMP2LT"> F  </i>
   <i type="logical" name="LUSEW"> F  </i>
   <i name="ENCUTGW">     -2.00000000</i>
   <i name="ENCUTGWSOFT">     -2.00000000</i>
   <i name="ENCUTLF">     -1.00000000</i>
   <i type="int" name="LMAXMP2">    -1</i>
   <i name="SCISSOR">      0.00000000</i>
   <i type="int" name="NOMEGA">     0</i>
   <i type="int" name="NOMEGAR">     0</i>
   <i type="int" name="NBANDSGW">    -1</i>
   <i type="int" name="NBANDSO">    -1</i>
   <i type="int" name="NBANDSV">    -1</i>
   <i type="int" name="NELM">     1</i>
   <i type="int" name="NELMHF">     1</i>
   <i type="int" name="DIM">     3</i>
   <i type="int" name="ANTIRES">     0</i>
   <i name="OMEGAMAX">    -30.00000000</i>
   <i name="OMEGAMIN">    -30.00000000</i>
   <i name="OMEGATL">   -200.00000000</i>
   <i type="int" name="OMEGAGRID">   140</i>
   <i name="CSHIFT">     -0.10000000</i>
   <i type="logical" name="SELFENERGY"> F  </i>
   <i type="logical" name="LSPECTRAL"> F  </i>
   <i type="logical" name="LSPECTRALGW"> F  </i>
   <i type="logical" name="LSINGLES"> F  </i>
   <i type="logical" name="LFERMIGW"> F  </i>
   <i type="logical" name="ODDONLYGW"> F  </i>
   <i type="logical" name="EVENONLYGW"> F  </i>
   <i type="int" name="NKREDLFX">     1</i>
   <i type="int" name="NKREDLFY">     1</i>
   <i type="int" name="NKREDLFZ">     1</i>
   <i type="int" name="MAXMEM">  2800</i>
   <i type="int" name="TELESCOPE">     0</i>
   <i type="int" name="TAUPAR">     1</i>
   <i type="int" name="OMEGAPAR">    -1</i>
   <i name="LAMBDA">      1.00000000</i>
  </separator>
  <separator name="External order field" >
   <i name="OFIELD_KAPPA">      0.00000000</i>
   <v name="OFIELD_K">      0.00000000      0.00000000      0.00000000</v>
   <i name="OFIELD_Q6_NEAR">      0.00000000</i>
   <i name="OFIELD_Q6_FAR">      0.00000000</i>
   <i name="OFIELD_A">      0.00000000</i>
  </separator>
 </parameters>
 <atominfo>
  <atoms>       6 </atoms>
  <types>       2 </types>
  <array name="atoms" >
   <dimension dim="1">ion</dimension>
   <field type="string">element</field>
   <field type="int">atomtype</field>
   <set>
    <rc><c>Mo</c><c>   1</c></rc>
    <rc><c>Mo</c><c>   1</c></rc>
    <rc><c>S </c><c>   2</c></rc>
    <rc><c>S </c><c>   2</c></rc>
    <rc><c>S </c><c>   2</c></rc>
    <rc><c>S </c><c>   2</c></rc>
   </set>
  </array>
  <array name="atomtypes" >
   <dimension dim="1">type</dimension>
   <field type="int">atomspertype</field>
   <field type="string">element</field>
   <field>mass</field>
   <field>valence</field>
   <field type="string">pseudopotential</field>
   <set>
    <rc><c>   2</c><c>Mo</c><c>     95.94000000</c><c>      6.00000000</c><c> PAW_PBE Mo 08Apr2002                   </c></rc>
    <rc><c>   4</c><c>S </c><c>     32.06600000</c><c>      6.00000000</c><c>  PAW_PBE S 17Jan2003                   </c></rc>
   </set>
  </array>
 </atominfo>
 <structure name="initialpos" >
  <crystal>
   <varray name="basis" >
    <v>       3.19031573       0.00000000       0.00000000 </v>
    <v>      -1.59515786       2.76289447       0.00000000 </v>
    <v>       0.00000000       0.00000000      14.87900430 </v>
   </varray>
   <i name="volume">    131.15106795 </i>
   <varray name="rec_basis" >
    <v>       0.31344860       0.18096963       0.00000000 </v>
    <v>       0.00000000       0.36193927       0.00000000 </v>
    <v>       0.00000000       0.00000000       0.06720880 </v>
   </varray>
  </crystal>
  <varray name="positions" >
   <v>       0.33333300       0.66666700       0.25000000 </v>
   <v>       0.66666700       0.33333300       0.75000000 </v>
   <v>       0.33333300       0.66666700       0.85517400 </v>
   <v>       0.66666700       0.33333300       0.14482600 </v>
   <v>       0.66666600       0.33333300       0.35517400 </v>
   <v>       0.33333400       0.66666700       0.64482600 </v>
  </varray>
 </structure>
 <calculation>
  <scstep>
   <time name="dav">    1.10    1.11</time>
   <time name="total">    1.16    1.19</time>
   <energy>
    <i name="alphaZ">     90.42577596 </i>
    <i name="ewald">  -1146.88905665 </i>
    <i name="hartreedc">   -535.10238363 </i>
    <i name="XCdc">    -72.59368150 </i>
    <i name="pawpsdc">    813.77302396 </i>
    <i name="pawaedc">   -658.68146406 </i>
    <i name="eentropy">      0.00000000 </i>
    <i name="bandstr">    167.14257376 </i>
    <i name="atom">   1542.31022798 </i>
    <i name="e_fr_energy">    200.38501584 </i>
    <i name="e_wo_entrp">    200.38501584 </i>
    <i name="e_0_energy">    200.38501584 </i>
   </energy>
  </scstep>
  <scstep>
   <time name="dav">    1.39    1.39</time>
   <time name="total">    1.39    1.39</time>
   <energy>
    <i name="e_fr_energy">    -28.45897610 </i>
    <i name="e_wo_entrp">    -28.45897610 </i>
    <i name="e_0_energy">    -28.45897610 </i>
   </energy>
  </scstep>
  <scstep>
   <time name="dav">    1.38    1.38</time>
   <time name="total">    1.38    1.38</time>
   <energy>
    <i name="e_fr_energy">    -46.25811199 </i>
    <i name="e_wo_entrp">    -46.25811199 </i>
    <i name="e_0_energy">    -46.25811199 </i>
   </energy>
  </scstep>
  <scstep>
   <time name="dav">    1.41    1.43</time>
   <time name="total">    1.42    1.43</time>
   <energy>
    <i name="e_fr_energy">    -46.80765621 </i>
    <i name="e_wo_entrp">    -46.80765621 </i>
    <i name="e_0_energy">    -46.80765621 </i>
   </energy>
  </scstep>
  <scstep>
   <time name="dav">    1.36    1.37</time>
   <time name="total">    1.45    1.45</time>
   <energy>
    <i name="e_fr_energy">    -46.82036600 </i>
    <i name="e_wo_entrp">    -46.82036600 </i>
    <i name="e_0_energy">    -46.82036600 </i>
   </energy>
  </scstep>
  <scstep>
   <time name="diag">    0.22    0.23</time>
   <time name="diis">    0.92    0.92</time>
   <time name="orth">    0.02    0.02</time>
   <time name="total">    1.29    1.29</time>
   <energy>
    <i name="e_fr_energy">    -44.42156068 </i>
    <i name="e_wo_entrp">    -44.42156068 </i>
    <i name="e_0_energy">    -44.42156068 </i>
   </energy>
  </scstep>
  <scstep>
   <time name="diag">    0.22    0.22</time>
   <time name="diis">    0.91    0.91</time>
   <time name="orth">    0.02    0.02</time>
   <time name="total">    1.28    1.28</time>
   <energy>
    <i name="e_fr_energy">    -43.69441706 </i>
    <i name="e_wo_entrp">    -43.69441706 </i>
    <i name="e_0_energy">    -43.69441706 </i>
   </energy>
  </scstep>
  <scstep>
   <time name="diag">    0.22    0.22</time>
   <time name="diis">    0.94    0.94</time>
   <time name="orth">    0.02    0.03</time>
   <time name="total">    1.31    1.32</time>
   <energy>
    <i name="e_fr_energy">    -43.63222213 </i>
    <i name="e_wo_entrp">    -43.63222213 </i>
    <i name="e_0_energy">    -43.63222213 </i>
   </energy>
  </scstep>
  <scstep>
   <time name="diag">    0.22    0.22</time>
   <time name="diis">    0.97    0.97</time>
   <time name="orth">    0.02    0.02</time>
   <time name="total">    1.34    1.35</time>
   <energy>
    <i name="e_fr_energy">    -43.62313865 </i>
    <i name="e_wo_entrp">    -43.62313865 </i>
    <i name="e_0_energy">    -43.62313865 </i>
   </energy>
  </scstep>
  <scstep>
   <time name="diag">    0.22    0.22</time>
   <time name="diis">    0.98    0.98</time>
   <time name="orth">    0.02    0.02</time>
   <time name="total">    1.35    1.35</time>
   <energy>
    <i name="e_fr_energy">    -43.60546429 </i>
    <i name="e_wo_entrp">    -43.60546429 </i>
    <i name="e_0_energy">    -43.60546429 </i>
   </energy>
  </scstep>
  <scstep>
   <time name="diag">    0.22    0.22</time>
   <time name="diis">    1.04    1.04</time>
   <time name="orth">    0.02    0.03</time>
   <time name="total">    1.41    1.41</time>
   <energy>
    <i name="e_fr_energy">    -43.60560517 </i>
    <i name="e_wo_entrp">    -43.60560517 </i>
    <i name="e_0_energy">    -43.60560517 </i>
   </energy>
  </scstep>
  <scstep>
   <time name="diag">    0.22    0.22</time>
   <time name="diis">    1.04    1.04</time>
   <time name="orth">    0.02    0.03</time>
   <time name="total">    1.41    1.41</time>
   <energy>
    <i name="e_fr_energy">    -43.60574069 </i>
    <i name="e_wo_entrp">    -43.60574069 </i>
    <i name="e_0_energy">    -43.60574069 </i>
   </energy>
  </scstep>
  <scstep>
   <time name="diag">    0.22    0.22</time>
   <time name="diis">    1.06    1.06</time>
   <time name="orth">    0.02    0.03</time>
   <time name="total">    1.43    1.43</time>
   <energy>
    <i name="e_fr_energy">    -43.60576001 </i>
    <i name="e_wo_entrp">    -43.60576001 </i>
    <i name="e_0_energy">    -43.60576001 </i>
   </energy>
  </scstep>
  <scstep>
   <time name="diag">    0.22    0.22</time>
   <time name="diis">    0.84    0.84</time>
   <time name="orth">    0.03    0.03</time>
   <time name="total">    1.21    1.22</time>
   <energy>
    <i name="e_fr_energy">    -43.60574699 </i>
    <i name="e_wo_entrp">    -43.60574699 </i>
    <i name="e_0_energy">    -43.60574699 </i>
   </energy>
  </scstep>
  <scstep>
   <time name="diag">    0.22    0.22</time>
   <time name="diis">    0.66    0.66</time>
   <time name="orth">    0.03    0.03</time>
   <time name="total">    0.95    0.95</time>
   <energy>
    <i name="alphaZ">     90.42577596 </i>
    <i name="ewald">  -1146.88905665 </i>
    <i name="hartreedc">   -542.95356490 </i>
    <i name="XCdc">    -70.39238436 </i>
    <i name="pawpsdc">    944.33866025 </i>
    <i name="pawaedc">   -792.71981200 </i>
    <i name="eentropy">      0.00000000 </i>
    <i name="bandstr">    -67.72559374 </i>
    <i name="atom">   1542.31022798 </i>
    <i name="e_fr_energy">    -43.60574744 </i>
    <i name="e_wo_entrp">    -43.60574744 </i>
    <i name="e_0_energy">    -43.60574744 </i>
   </energy>
  </scstep>
  <structure>
   <crystal>
    <varray name="basis" >
     <v>       3.19031573       0.00000000       0.00000000 </v>
     <v>      -1.59515786       2.76289447       0.00000000 </v>
     <v>       0.00000000       0.00000000      14.87900430 </v>
    </varray>
    <i name="volume">    131.15106795 </i>
    <varray name="rec_basis" >
     <v>       0.31344860       0.18096963       0.00000000 </v>
     <v>       0.00000000       0.36193927       0.00000000 </v>
     <v>       0.00000000       0.00000000       0.06720880 </v>
    </varray>
   </crystal>
   <varray name="positions" >
    <v>       0.33333300       0.66666700       0.25000000 </v>
    <v>       0.66666700       0.33333300       0.75000000 </v>
    <v>       0.33333300       0.66666700       0.85517400 </v>
    <v>       0.66666700       0.33333300       0.14482600 </v>
    <v>       0.66666600       0.33333300       0.35517400 </v>
    <v>       0.33333400       0.66666700       0.64482600 </v>
   </varray>
  </structure>
  <varray name="forces" >
   <v>       0.00000000      -0.00000000      -0.00000000 </v>
   <v>       0.00000000       0.00000000      -0.00000000 </v>
   <v>      -0.00000000       0.00000000      -0.08565782 </v>
   <v>       0.00000000      -0.00000000       0.08565782 </v>
   <v>       0.00000000       0.00000000      -0.08565782 </v>
   <v>      -0.00000000      -0.00000000       0.08565782 </v>
  </varray>
  <varray name="stress" >
   <v>      -5.09262932       0.00000000       0.00000000 </v>
   <v>       0.00000000      -5.09262932      -0.00000000 </v>
   <v>       0.00000000       0.00000000     -16.55286670 </v>
  </varray>
  <energy>
   <i name="e_fr_energy">    -44.93703446 </i>
   <i name="e_wo_entrp">    -44.93703446 </i>
   <i name="e_0_energy">      0.00000000 </i>
  </energy>
  <time name="totalsc">   21.28   21.44</time>
  <eigenvalues>
   <array>
    <dimension dim="1">band</dimension>
    <dimension dim="2">kpoint</dimension>
    <dimension dim="3">spin</dimension>
    <field>eigene</field>
    <field>occ</field>
    <set>
     <set comment="spin 1">
      <set comment="kpoint 1">
       <r>  -10.9296    1.0000 </r>
       <r>  -10.9106    1.0000 </r>
       <r>   -9.7292    1.0000 </r>
       <r>   -9.6952    1.0000 </r>
       <r>   -2.5232    1.0000 </r>
       <r>   -2.3617    1.0000 </r>
       <r>    0.5200    1.0000 </r>
       <r>    0.5200    1.0000 </r>
       <r>    0.5205    1.0000 </r>
       <r>    0.5205    1.0000 </r>
       <r>    1.1062    1.0000 </r>
       <r>    1.6249    1.0000 </r>
       <r>    1.6250    1.0000 </r>
       <r>    1.6269    1.0000 </r>
       <r>    1.6269    1.0000 </r>
       <r>    1.6748    1.0000 </r>
       <r>    2.9225    1.0000 </r>
       <r>    3.2984    1.0000 </r>
       <r>    5.8749    0.0000 </r>
       <r>    5.9113    0.0000 </r>
       <r>    6.0192    0.0000 </r>
       <r>    6.0856    0.0000 </r>
      </set>
      <set comment="kpoint 2">
       <r>  -10.8583    1.0000 </r>
       <r>  -10.8394    1.0000 </r>
       <r>   -9.6946    1.0000 </r>
       <r>   -9.6615    1.0000 </r>
       <r>   -2.4386    1.0000 </r>
       <r>   -2.2775    1.0000 </r>
       <r>    0.3532    1.0000 </r>
       <r>    0.3540    1.0000 </r>
       <r>    0.5985    1.0000 </r>
       <r>    0.5992    1.0000 </r>
       <r>    0.8158    1.0000 </r>
       <r>    1.1075    1.0000 </r>
       <r>    1.5043    1.0000 </r>
       <r>    1.5065    1.0000 </r>
       <r>    1.8139    1.0000 </r>
       <r>    2.0697    1.0000 </r>
       <r>    2.9052    1.0000 </r>
       <r>    3.2354    1.0000 </r>
       <r>    5.7731    0.0000 </r>
       <r>    5.8198    0.0000 </r>
       <r>    5.8783    0.0000 </r>
       <r>    5.9682    0.0000 </r>
      </set>
      <set comment="kpoint 3">
       <r>  -10.6520    1.0000 </r>
       <r>  -10.6335    1.0000 </r>
       <r>   -9.5950    1.0000 </r>
       <r>   -9.5643    1.0000 </r>
       <r>   -2.2110    1.0000 </r>
       <r>   -2.0537    1.0000 </r>
       <r>   -0.0618    1.0000 </r>
       <r>   -0.0576    1.0000 </r>
       <r>    0.3300    1.0000 </r>
       <r>    0.5259    1.0000 </r>
       <r>    0.8220    1.0000 </r>
       <r>    0.8234    1.0000 </r>
       <r>    1.2029    1.0000 </r>
       <r>    1.2057    1.0000 </r>
       <r>    1.9392    1.0000 </r>
       <r>    2.2206    1.0000 </r>
       <r>    2.8050    1.0000 </r>
       <r>    3.0118    1.0000 </r>
       <r>    5.4237    0.0000 </r>
       <r>    5.6329    0.0000 </r>
       <r>    5.6588    0.0000 </r>
       <r>    5.7863    0.0000 </r>
      </set>
      <set comment="kpoint 4">
       <r>  -10.3340    1.0000 </r>
       <r>  -10.3166    1.0000 </r>
       <r>   -9.4426    1.0000 </r>
       <r>   -9.4157    1.0000 </r>
       <r>   -1.9503    1.0000 </r>
       <r>   -1.8132    1.0000 </r>
       <r>   -0.5249    1.0000 </r>
       <r>   -0.5035    1.0000 </r>
       <r>   -0.1944    1.0000 </r>
       <r>   -0.0664    1.0000 </r>
       <r>    0.8342    1.0000 </r>
       <r>    0.8374    1.0000 </r>
       <r>    1.1532    1.0000 </r>
       <r>    1.1559    1.0000 </r>
       <r>    1.8206    1.0000 </r>
       <r>    2.0584    1.0000 </r>
       <r>    2.5405    1.0000 </r>
       <r>    2.6222    1.0000 </r>
       <r>    5.1356    0.0000 </r>
       <r>    5.4638    0.0000 </r>
       <r>    5.5483    0.0000 </r>
       <r>    5.5687    0.0000 </r>
      </set>
      <set comment="kpoint 5">
       <r>   -9.9467    1.0000 </r>
       <r>   -9.9310    1.0000 </r>
       <r>   -9.2596    1.0000 </r>
       <r>   -9.2379    1.0000 </r>
       <r>   -1.9211    1.0000 </r>
       <r>   -1.8432    1.0000 </r>
       <r>   -0.7769    1.0000 </r>
       <r>   -0.7230    1.0000 </r>
       <r>   -0.7076    1.0000 </r>
       <r>   -0.6433    1.0000 </r>
       <r>    0.4858    1.0000 </r>
       <r>    0.4894    1.0000 </r>
       <r>    1.5276    1.0000 </r>
       <r>    1.5323    1.0000 </r>
       <r>    1.5818    1.0000 </r>
       <r>    1.7615    1.0000 </r>
       <r>    2.2218    1.0000 </r>
       <r>    2.2609    1.0000 </r>
       <r>    5.1683    0.0000 </r>
       <r>    5.3529    0.0000 </r>
       <r>    5.3670    0.0000 </r>
       <r>    5.4660    0.0000 </r>
      </set>
      <set comment="kpoint 6">
       <r>   -9.5559    1.0000 </r>
       <r>   -9.5431    1.0000 </r>
       <r>   -9.0793    1.0000 </r>
       <r>   -9.0635    1.0000 </r>
       <r>   -2.2027    1.0000 </r>
       <r>   -2.1639    1.0000 </r>
       <r>   -1.1971    1.0000 </r>
       <r>   -1.1485    1.0000 </r>
       <r>   -0.8287    1.0000 </r>
       <r>   -0.7424    1.0000 </r>
       <r>    0.2099    1.0000 </r>
       <r>    0.2138    1.0000 </r>
       <r>    1.3789    1.0000 </r>
       <r>    1.5010    1.0000 </r>
       <r>    1.8607    1.0000 </r>
       <r>    1.8685    1.0000 </r>
       <r>    2.1419    1.0000 </r>
       <r>    2.1913    1.0000 </r>
       <r>    5.2650    0.0000 </r>
       <r>    5.2753    0.0000 </r>
       <r>    5.3878    0.0000 </r>
       <r>    5.5939    0.0000 </r>
      </set>
      <set comment="kpoint 7">
       <r>   -9.2534    1.0000 </r>
       <r>   -9.2445    1.0000 </r>
       <r>   -8.9436    1.0000 </r>
       <r>   -8.9337    1.0000 </r>
       <r>   -2.4958    1.0000 </r>
       <r>   -2.4671    1.0000 </r>
       <r>   -1.5315    1.0000 </r>
       <r>   -1.5008    1.0000 </r>
       <r>   -0.9155    1.0000 </r>
       <r>   -0.8362    1.0000 </r>
       <r>    0.0350    1.0000 </r>
       <r>    0.0391    1.0000 </r>
       <r>    1.2693    1.0000 </r>
       <r>    1.3333    1.0000 </r>
       <r>    2.0797    1.0000 </r>
       <r>    2.0905    1.0000 </r>
       <r>    2.3328    1.0000 </r>
       <r>    2.3747    1.0000 </r>
       <r>    5.2674    0.0000 </r>
       <r>    5.2732    0.0000 </r>
       <r>    5.6474    0.0000 </r>
       <r>    5.7500    0.0000 </r>
      </set>
      <set comment="kpoint 8">
       <r>   -9.1370    1.0000 </r>
       <r>   -9.1305    1.0000 </r>
       <r>   -8.8922    1.0000 </r>
       <r>   -8.8857    1.0000 </r>
       <r>   -2.6133    1.0000 </r>
       <r>   -2.5863    1.0000 </r>
       <r>   -1.6524    1.0000 </r>
       <r>   -1.6280    1.0000 </r>
       <r>   -0.9680    1.0000 </r>
       <r>   -0.8921    1.0000 </r>
       <r>   -0.0247    1.0000 </r>
       <r>   -0.0206    1.0000 </r>
       <r>    1.2469    1.0000 </r>
       <r>    1.2664    1.0000 </r>
       <r>    2.1536    1.0000 </r>
       <r>    2.1657    1.0000 </r>
       <r>    2.4773    1.0000 </r>
       <r>    2.4811    1.0000 </r>
       <r>    5.2843    0.0000 </r>
       <r>    5.2880    0.0000 </r>
       <r>    5.7739    0.0000 </r>
       <r>    5.8321    0.0000 </r>
      </set>
      <set comment="kpoint 9">
       <r>  -10.7195    1.0000 </r>
       <r>  -10.7009    1.0000 </r>
       <r>   -9.6275    1.0000 </r>
       <r>   -9.5960    1.0000 </r>
       <r>   -2.2812    1.0000 </r>
       <r>   -2.1221    1.0000 </r>
       <r>    0.0672    1.0000 </r>
       <r>    0.0677    1.0000 </r>
       <r>    0.4850    1.0000 </r>
       <r>    0.7116    1.0000 </r>
       <r>    0.7457    1.0000 </r>
       <r>    0.7466    1.0000 </r>
       <r>    1.2303    1.0000 </r>
       <r>    1.2355    1.0000 </r>
       <r>    1.9825    1.0000 </r>
       <r>    2.2568    1.0000 </r>
       <r>    2.8467    1.0000 </r>
       <r>    3.0915    1.0000 </r>
       <r>    5.5326    0.0000 </r>
       <r>    5.6057    0.0000 </r>
       <r>    5.7179    0.0000 </r>
       <r>    5.8411    0.0000 </r>
      </set>
      <set comment="kpoint 10">
       <r>  -10.4569    1.0000 </r>
       <r>  -10.4390    1.0000 </r>
       <r>   -9.5010    1.0000 </r>
       <r>   -9.4727    1.0000 </r>
       <r>   -2.0261    1.0000 </r>
       <r>   -1.8769    1.0000 </r>
       <r>   -0.3607    1.0000 </r>
       <r>   -0.3524    1.0000 </r>
       <r>    0.0561    1.0000 </r>
       <r>    0.2158    1.0000 </r>
       <r>    0.7892    1.0000 </r>
       <r>    0.8035    1.0000 </r>
       <r>    1.0034    1.0000 </r>
       <r>    1.0051    1.0000 </r>
       <r>    2.0345    1.0000 </r>
       <r>    2.2716    1.0000 </r>
       <r>    2.6602    1.0000 </r>
       <r>    2.7790    1.0000 </r>
       <r>    5.1772    0.0000 </r>
       <r>    5.4748    0.0000 </r>
       <r>    5.5818    0.0000 </r>
       <r>    5.6441    0.0000 </r>
      </set>
      <set comment="kpoint 11">
       <r>  -10.1029    1.0000 </r>
       <r>  -10.0864    1.0000 </r>
       <r>   -9.3321    1.0000 </r>
       <r>   -9.3082    1.0000 </r>
       <r>   -1.8577    1.0000 </r>
       <r>   -1.7502    1.0000 </r>
       <r>   -0.6972    1.0000 </r>
       <r>   -0.6542    1.0000 </r>
       <r>   -0.4464    1.0000 </r>
       <r>   -0.3537    1.0000 </r>
       <r>    0.3986    1.0000 </r>
       <r>    0.4299    1.0000 </r>
       <r>    1.2916    1.0000 </r>
       <r>    1.2942    1.0000 </r>
       <r>    1.8705    1.0000 </r>
       <r>    2.0437    1.0000 </r>
       <r>    2.3646    1.0000 </r>
       <r>    2.4031    1.0000 </r>
       <r>    5.0372    0.0000 </r>
       <r>    5.2800    0.0000 </r>
       <r>    5.4621    0.0000 </r>
       <r>    5.6078    0.0000 </r>
      </set>
      <set comment="kpoint 12">
       <r>   -9.7106    1.0000 </r>
       <r>   -9.6964    1.0000 </r>
       <r>   -9.1478    1.0000 </r>
       <r>   -9.1294    1.0000 </r>
       <r>   -2.0121    1.0000 </r>
       <r>   -1.9604    1.0000 </r>
       <r>   -0.9791    1.0000 </r>
       <r>   -0.9289    1.0000 </r>
       <r>   -0.7734    1.0000 </r>
       <r>   -0.6921    1.0000 </r>
       <r>    0.1506    1.0000 </r>
       <r>    0.1835    1.0000 </r>
       <r>    1.4876    1.0000 </r>
       <r>    1.4919    1.0000 </r>
       <r>    1.6105    1.0000 </r>
       <r>    1.7278    1.0000 </r>
       <r>    2.2364    1.0000 </r>
       <r>    2.2611    1.0000 </r>
       <r>    5.0964    0.0000 </r>
       <r>    5.2498    0.0000 </r>
       <r>    5.4500    0.0000 </r>
       <r>    5.6203    0.0000 </r>
      </set>
      <set comment="kpoint 13">
       <r>   -9.3582    1.0000 </r>
       <r>   -9.3476    1.0000 </r>
       <r>   -8.9860    1.0000 </r>
       <r>   -8.9736    1.0000 </r>
       <r>   -2.3102    1.0000 </r>
       <r>   -2.2786    1.0000 </r>
       <r>   -1.4222    1.0000 </r>
       <r>   -1.3936    1.0000 </r>
       <r>   -0.8322    1.0000 </r>
       <r>   -0.7520    1.0000 </r>
       <r>    0.0194    1.0000 </r>
       <r>    0.0422    1.0000 </r>
       <r>    1.3866    1.0000 </r>
       <r>    1.4586    1.0000 </r>
       <r>    1.6230    1.0000 </r>
       <r>    1.6354    1.0000 </r>
       <r>    2.3936    1.0000 </r>
       <r>    2.4169    1.0000 </r>
       <r>    5.2328    0.0000 </r>
       <r>    5.2986    0.0000 </r>
       <r>    5.5762    0.0000 </r>
       <r>    5.6779    0.0000 </r>
      </set>
      <set comment="kpoint 14">
       <r>   -9.1430    1.0000 </r>
       <r>   -9.1360    1.0000 </r>
       <r>   -8.8892    1.0000 </r>
       <r>   -8.8820    1.0000 </r>
       <r>   -2.5116    1.0000 </r>
       <r>   -2.4847    1.0000 </r>
       <r>   -1.6717    1.0000 </r>
       <r>   -1.6534    1.0000 </r>
       <r>   -0.9262    1.0000 </r>
       <r>   -0.8515    1.0000 </r>
       <r>   -0.0342    1.0000 </r>
       <r>   -0.0210    1.0000 </r>
       <r>    1.2679    1.0000 </r>
       <r>    1.3033    1.0000 </r>
       <r>    1.7374    1.0000 </r>
       <r>    1.7485    1.0000 </r>
       <r>    2.5924    1.0000 </r>
       <r>    2.6094    1.0000 </r>
       <r>    5.2945    0.0000 </r>
       <r>    5.3153    0.0000 </r>
       <r>    5.7649    0.0000 </r>
       <r>    5.8346    0.0000 </r>
      </set>
      <set comment="kpoint 15">
       <r>  -10.1574    1.0000 </r>
       <r>  -10.1406    1.0000 </r>
       <r>   -9.3571    1.0000 </r>
       <r>   -9.3324    1.0000 </r>
       <r>   -1.8372    1.0000 </r>
       <r>   -1.7166    1.0000 </r>
       <r>   -0.6429    1.0000 </r>
       <r>   -0.6165    1.0000 </r>
       <r>   -0.2384    1.0000 </r>
       <r>   -0.1360    1.0000 </r>
       <r>    0.1890    1.0000 </r>
       <r>    0.2408    1.0000 </r>
       <r>    1.1715    1.0000 </r>
       <r>    1.1732    1.0000 </r>
       <r>    2.0800    1.0000 </r>
       <r>    2.2454    1.0000 </r>
       <r>    2.4285    1.0000 </r>
       <r>    2.4687    1.0000 </r>
       <r>    4.9730    0.0000 </r>
       <r>    5.2271    0.0000 </r>
       <r>    5.5352    0.0000 </r>
       <r>    5.6018    0.0000 </r>
      </set>
      <set comment="kpoint 16">
       <r>   -9.7948    1.0000 </r>
       <r>   -9.7800    1.0000 </r>
       <r>   -9.1837    1.0000 </r>
       <r>   -9.1638    1.0000 </r>
       <r>   -1.8599    1.0000 </r>
       <r>   -1.7938    1.0000 </r>
       <r>   -0.7563    1.0000 </r>
       <r>   -0.7234    1.0000 </r>
       <r>   -0.6999    1.0000 </r>
       <r>   -0.6356    1.0000 </r>
       <r>   -0.1005    1.0000 </r>
       <r>   -0.0109    1.0000 </r>
       <r>    1.1478    1.0000 </r>
       <r>    1.1505    1.0000 </r>
       <r>    1.9168    1.0000 </r>
       <r>    2.0127    1.0000 </r>
       <r>    2.3025    1.0000 </r>
       <r>    2.3112    1.0000 </r>
       <r>    4.9358    0.0000 </r>
       <r>    5.1718    0.0000 </r>
       <r>    5.5292    0.0000 </r>
       <r>    5.7457    0.0000 </r>
      </set>
      <set comment="kpoint 17">
       <r>   -9.4329    1.0000 </r>
       <r>   -9.4211    1.0000 </r>
       <r>   -9.0121    1.0000 </r>
       <r>   -8.9978    1.0000 </r>
       <r>   -2.0671    1.0000 </r>
       <r>   -2.0305    1.0000 </r>
       <r>   -1.3209    1.0000 </r>
       <r>   -1.3058    1.0000 </r>
       <r>   -0.6794    1.0000 </r>
       <r>   -0.6080    1.0000 </r>
       <r>   -0.1340    1.0000 </r>
       <r>   -0.0589    1.0000 </r>
       <r>    1.0184    1.0000 </r>
       <r>    1.0319    1.0000 </r>
       <r>    1.6293    1.0000 </r>
       <r>    1.6784    1.0000 </r>
       <r>    2.4074    1.0000 </r>
       <r>    2.4137    1.0000 </r>
       <r>    5.1219    0.0000 </r>
       <r>    5.3314    0.0000 </r>
       <r>    5.6312    0.0000 </r>
       <r>    5.9665    0.0000 </r>
      </set>
      <set comment="kpoint 18">
       <r>   -9.1563    1.0000 </r>
       <r>   -9.1484    1.0000 </r>
       <r>   -8.8824    1.0000 </r>
       <r>   -8.8737    1.0000 </r>
       <r>   -2.2536    1.0000 </r>
       <r>   -2.2266    1.0000 </r>
       <r>   -1.7123    1.0000 </r>
       <r>   -1.7055    1.0000 </r>
       <r>   -0.7955    1.0000 </r>
       <r>   -0.7276    1.0000 </r>
       <r>   -0.0811    1.0000 </r>
       <r>   -0.0282    1.0000 </r>
[...]
       <r>    0.7218    1.0000 </r>
       <r>    1.7670    1.0000 </r>
       <r>    1.7831    1.0000 </r>
       <r>    2.3968    1.0000 </r>
       <r>    2.3980    1.0000 </r>
       <r>    5.1259    0.0000 </r>
       <r>    5.2573    0.0000 </r>
       <r>    5.6375    0.0000 </r>
       <r>    5.6992    0.0000 </r>
      </set>
      <set comment="kpoint 45">
       <r>   -9.1647    1.0000 </r>
       <r>   -9.1604    1.0000 </r>
       <r>   -8.8743    1.0000 </r>
       <r>   -8.8694    1.0000 </r>
       <r>   -1.9997    1.0000 </r>
       <r>   -1.9857    1.0000 </r>
       <r>   -1.7452    1.0000 </r>
       <r>   -1.7403    1.0000 </r>
       <r>   -0.5559    1.0000 </r>
       <r>   -0.5346    1.0000 </r>
       <r>   -0.1072    1.0000 </r>
       <r>   -0.0656    1.0000 </r>
       <r>    0.3532    1.0000 </r>
       <r>    0.3656    1.0000 </r>
       <r>    1.4618    1.0000 </r>
       <r>    1.4705    1.0000 </r>
       <r>    2.6078    1.0000 </r>
       <r>    2.6134    1.0000 </r>
       <r>    5.2259    0.0000 </r>
       <r>    5.2871    0.0000 </r>
       <r>    5.8639    0.0000 </r>
       <r>    5.9342    0.0000 </r>
      </set>
      <set comment="kpoint 46">
       <r>   -8.9912    1.0000 </r>
       <r>   -8.9887    1.0000 </r>
       <r>   -8.7888    1.0000 </r>
       <r>   -8.7863    1.0000 </r>
       <r>   -2.0135    1.0000 </r>
       <r>   -2.0098    1.0000 </r>
       <r>   -1.9897    1.0000 </r>
       <r>   -1.9793    1.0000 </r>
       <r>   -0.7463    1.0000 </r>
       <r>   -0.7208    1.0000 </r>
       <r>    0.0274    1.0000 </r>
       <r>    0.0572    1.0000 </r>
       <r>    0.2554    1.0000 </r>
       <r>    0.2677    1.0000 </r>
       <r>    1.1985    1.0000 </r>
       <r>    1.2187    1.0000 </r>
       <r>    2.8450    1.0000 </r>
       <r>    2.8555    1.0000 </r>
       <r>    5.0797    0.0000 </r>
       <r>    5.0929    0.0000 </r>
       <r>    6.2565    0.0000 </r>
       <r>    6.2894    0.0000 </r>
      </set>
      <set comment="kpoint 47">
       <r>   -8.9715    1.0000 </r>
       <r>   -8.9691    1.0000 </r>
       <r>   -8.7726    1.0000 </r>
       <r>   -8.7700    1.0000 </r>
       <r>   -2.0769    1.0000 </r>
       <r>   -2.0710    1.0000 </r>
       <r>   -1.7886    1.0000 </r>
       <r>   -1.7780    1.0000 </r>
       <r>   -0.5639    1.0000 </r>
       <r>   -0.5567    1.0000 </r>
       <r>   -0.2515    1.0000 </r>
       <r>   -0.2298    1.0000 </r>
       <r>    0.0645    1.0000 </r>
       <r>    0.0980    1.0000 </r>
       <r>    1.1764    1.0000 </r>
       <r>    1.1927    1.0000 </r>
       <r>    2.8799    1.0000 </r>
       <r>    2.8885    1.0000 </r>
       <r>    4.9942    0.0000 </r>
       <r>    5.0087    0.0000 </r>
       <r>    6.1369    0.0000 </r>
       <r>    6.2166    0.0000 </r>
      </set>
      <set comment="kpoint 48">
       <r>   -8.9002    1.0000 </r>
       <r>   -8.8992    1.0000 </r>
       <r>   -8.7339    1.0000 </r>
       <r>   -8.7329    1.0000 </r>
       <r>   -2.1986    1.0000 </r>
       <r>   -2.1926    1.0000 </r>
       <r>   -1.5860    1.0000 </r>
       <r>   -1.5813    1.0000 </r>
       <r>   -0.8092    1.0000 </r>
       <r>   -0.8048    1.0000 </r>
       <r>   -0.3495    1.0000 </r>
       <r>   -0.3450    1.0000 </r>
       <r>    0.1920    1.0000 </r>
       <r>    0.2109    1.0000 </r>
       <r>    1.0142    1.0000 </r>
       <r>    1.0288    1.0000 </r>
       <r>    3.0438    1.0000 </r>
       <r>    3.0538    1.0000 </r>
       <r>    4.8213    0.0000 </r>
       <r>    4.8236    0.0000 </r>
       <r>    6.1211    0.0000 </r>
       <r>    6.2112    0.0000 </r>
      </set>
     </set>
    </set>
   </array>
  </eigenvalues>
  <separator name="orbital magnetization" >
   <v name="MAGDIPOLOUT">      0.00000000      0.00000000      0.00000000</v>
  </separator>
  <dos>
   <i name="efermi">      3.30898575 </i>
   <total>
    <array>
     <dimension dim="1">gridpoints</dimension>
     <dimension dim="2">spin</dimension>
     <field>energy</field>
     <field>total</field>
     <field>integrated</field>
     <set>
      <set comment="spin 1">
       <r>   -12.9296     0.0000     0.0000 </r>
       <r>   -12.8588     0.0000     0.0000 </r>
       <r>   -12.7879     0.0000     0.0000 </r>
       <r>   -12.7171     0.0000     0.0000 </r>
       <r>   -12.6463     0.0000     0.0000 </r>
       <r>   -12.5754     0.0000     0.0000 </r>
       <r>   -12.5046     0.0000     0.0000 </r>
       <r>   -12.4338     0.0000     0.0000 </r>
       <r>   -12.3629     0.0000     0.0000 </r>
       <r>   -12.2921     0.0000     0.0000 </r>
       <r>   -12.2213     0.0000     0.0000 </r>
       <r>   -12.1504     0.0000     0.0000 </r>
       <r>   -12.0796     0.0000     0.0000 </r>
       <r>   -12.0088     0.0000     0.0000 </r>
       <r>   -11.9379     0.0000     0.0000 </r>
       <r>   -11.8671     0.0000     0.0000 </r>
       <r>   -11.7963     0.0000     0.0000 </r>
       <r>   -11.7254     0.0000     0.0000 </r>
       <r>   -11.6546     0.0000     0.0000 </r>
       <r>   -11.5838     0.0000     0.0000 </r>
       <r>   -11.5129     0.0000     0.0000 </r>
       <r>   -11.4421     0.0000     0.0000 </r>
       <r>   -11.3713     0.0000     0.0000 </r>
       <r>   -11.3004     0.0000     0.0000 </r>
       <r>   -11.2296     0.0000     0.0000 </r>
       <r>   -11.1588     0.0000     0.0000 </r>
       <r>   -11.0879     0.0000     0.0000 </r>
       <r>   -11.0171     0.0000     0.0000 </r>
       <r>   -10.9463     0.0000     0.0000 </r>
       <r>   -10.8754     1.0797     0.0247 </r>
       <r>   -10.8046     0.9803     0.1026 </r>
       <r>   -10.7338     1.1363     0.1775 </r>
       <r>   -10.6629     1.0941     0.2588 </r>
       <r>   -10.5921     1.1022     0.3351 </r>
       <r>   -10.5213     1.1692     0.4156 </r>
       <r>   -10.4504     1.2063     0.5007 </r>
       <r>   -10.3796     1.2022     0.5853 </r>
       <r>   -10.3088     1.2305     0.6713 </r>
       <r>   -10.2379     1.2795     0.7602 </r>
       <r>   -10.1671     1.3284     0.8525 </r>
       <r>   -10.0963     1.3619     0.9479 </r>
       <r>   -10.0254     1.4118     1.0461 </r>
       <r>    -9.9546     1.4628     1.1479 </r>
       <r>    -9.8838     1.5173     1.2534 </r>
       <r>    -9.8129     1.5727     1.3629 </r>
       <r>    -9.7421     1.6928     1.4784 </r>
       <r>    -9.6713     4.3806     1.6733 </r>
       <r>    -9.6004     4.2897     1.9651 </r>
       <r>    -9.5296     4.4355     2.2683 </r>
       <r>    -9.4588     4.6550     2.5927 </r>
       <r>    -9.3879     5.2479     2.9434 </r>
       <r>    -9.3171     5.8330     3.3356 </r>
       <r>    -9.2463     6.5284     3.7727 </r>
       <r>    -9.1754     7.6742     4.2746 </r>
       <r>    -9.1046     8.8409     4.9761 </r>
       <r>    -9.0338     7.7505     5.5486 </r>
       <r>    -8.9629     9.8600     6.1584 </r>
       <r>    -8.8921     9.8054     6.9017 </r>
       <r>    -8.8213     5.8921     7.5214 </r>
       <r>    -8.7504     4.5265     7.9135 </r>
       <r>    -8.6796     0.0000     8.0000 </r>
       <r>    -8.6088     0.0000     8.0000 </r>
       <r>    -8.5379     0.0000     8.0000 </r>
       <r>    -8.4671     0.0000     8.0000 </r>
       <r>    -8.3963     0.0000     8.0000 </r>
       <r>    -8.3254     0.0000     8.0000 </r>
       <r>    -8.2546     0.0000     8.0000 </r>
       <r>    -8.1838     0.0000     8.0000 </r>
       <r>    -8.1129     0.0000     8.0000 </r>
       <r>    -8.0421     0.0000     8.0000 </r>
       <r>    -7.9713     0.0000     8.0000 </r>
       <r>    -7.9004     0.0000     8.0000 </r>
       <r>    -7.8296     0.0000     8.0000 </r>
       <r>    -7.7588     0.0000     8.0000 </r>
       <r>    -7.6879     0.0000     8.0000 </r>
       <r>    -7.6171     0.0000     8.0000 </r>
       <r>    -7.5463     0.0000     8.0000 </r>
       <r>    -7.4754     0.0000     8.0000 </r>
       <r>    -7.4046     0.0000     8.0000 </r>
       <r>    -7.3338     0.0000     8.0000 </r>
       <r>    -7.2629     0.0000     8.0000 </r>
       <r>    -7.1921     0.0000     8.0000 </r>
       <r>    -7.1213     0.0000     8.0000 </r>
       <r>    -7.0504     0.0000     8.0000 </r>
       <r>    -6.9796     0.0000     8.0000 </r>
       <r>    -6.9088     0.0000     8.0000 </r>
       <r>    -6.8379     0.0000     8.0000 </r>
       <r>    -6.7671     0.0000     8.0000 </r>
       <r>    -6.6963     0.0000     8.0000 </r>
       <r>    -6.6254     0.0000     8.0000 </r>
       <r>    -6.5546     0.0000     8.0000 </r>
       <r>    -6.4838     0.0000     8.0000 </r>
       <r>    -6.4129     0.0000     8.0000 </r>
       <r>    -6.3421     0.0000     8.0000 </r>
       <r>    -6.2713     0.0000     8.0000 </r>
       <r>    -6.2004     0.0000     8.0000 </r>
       <r>    -6.1296     0.0000     8.0000 </r>
       <r>    -6.0588     0.0000     8.0000 </r>
       <r>    -5.9879     0.0000     8.0000 </r>
       <r>    -5.9171     0.0000     8.0000 </r>
       <r>    -5.8463     0.0000     8.0000 </r>
       <r>    -5.7754     0.0000     8.0000 </r>
       <r>    -5.7046     0.0000     8.0000 </r>
       <r>    -5.6338     0.0000     8.0000 </r>
       <r>    -5.5629     0.0000     8.0000 </r>
       <r>    -5.4921     0.0000     8.0000 </r>
       <r>    -5.4212     0.0000     8.0000 </r>
       <r>    -5.3504     0.0000     8.0000 </r>
       <r>    -5.2796     0.0000     8.0000 </r>
       <r>    -5.2087     0.0000     8.0000 </r>
       <r>    -5.1379     0.0000     8.0000 </r>
       <r>    -5.0671     0.0000     8.0000 </r>
       <r>    -4.9962     0.0000     8.0000 </r>
       <r>    -4.9254     0.0000     8.0000 </r>
       <r>    -4.8546     0.0000     8.0000 </r>
       <r>    -4.7837     0.0000     8.0000 </r>
       <r>    -4.7129     0.0000     8.0000 </r>
       <r>    -4.6421     0.0000     8.0000 </r>
       <r>    -4.5712     0.0000     8.0000 </r>
       <r>    -4.5004     0.0000     8.0000 </r>
       <r>    -4.4296     0.0000     8.0000 </r>
       <r>    -4.3587     0.0000     8.0000 </r>
       <r>    -4.2879     0.0000     8.0000 </r>
       <r>    -4.2171     0.0000     8.0000 </r>
       <r>    -4.1462     0.0000     8.0000 </r>
       <r>    -4.0754     0.0000     8.0000 </r>
       <r>    -4.0046     0.0000     8.0000 </r>
       <r>    -3.9337     0.0000     8.0000 </r>
       <r>    -3.8629     0.0000     8.0000 </r>
       <r>    -3.7921     0.0000     8.0000 </r>
       <r>    -3.7212     0.0000     8.0000 </r>
       <r>    -3.6504     0.0000     8.0000 </r>
       <r>    -3.5796     0.0000     8.0000 </r>
       <r>    -3.5087     0.0000     8.0000 </r>
       <r>    -3.4379     0.0000     8.0000 </r>
       <r>    -3.3671     0.0000     8.0000 </r>
       <r>    -3.2962     0.0000     8.0000 </r>
       <r>    -3.2254     0.0000     8.0000 </r>
       <r>    -3.1546     0.0000     8.0000 </r>
       <r>    -3.0837     0.0000     8.0000 </r>
       <r>    -3.0129     0.0000     8.0000 </r>
       <r>    -2.9421     0.0000     8.0000 </r>
       <r>    -2.8712     0.0000     8.0000 </r>
       <r>    -2.8004     0.0000     8.0000 </r>
       <r>    -2.7296     0.0000     8.0000 </r>
       <r>    -2.6587     0.0000     8.0000 </r>
       <r>    -2.5879     0.3885     8.0037 </r>
       <r>    -2.5171     2.6686     8.1118 </r>
       <r>    -2.4462     2.5518     8.2897 </r>
       <r>    -2.3754     2.9736     8.4855 </r>
       <r>    -2.3046     3.6729     8.7270 </r>
       <r>    -2.2337     3.9376     8.9943 </r>
       <r>    -2.1629     5.6105     9.3457 </r>
       <r>    -2.0921     6.5328     9.7760 </r>
       <r>    -2.0212    10.6454    10.3482 </r>
       <r>    -1.9504     7.7752    10.9661 </r>
       <r>    -1.8796     8.6292    11.5510 </r>
       <r>    -1.8087     7.0508    12.2033 </r>
       <r>    -1.7379     3.8761    12.6961 </r>
       <r>    -1.6671     5.5886    12.9375 </r>
       <r>    -1.5962     3.7294    13.2547 </r>
       <r>    -1.5254     2.4823    13.4807 </r>
       <r>    -1.4546     2.1424    13.6434 </r>
       <r>    -1.3837     1.8910    13.7852 </r>
       <r>    -1.3129     1.7220    13.9133 </r>
       <r>    -1.2421     1.5319    14.0275 </r>
       <r>    -1.1712     1.4397    14.1325 </r>
       <r>    -1.1004     1.3996    14.2329 </r>
       <r>    -1.0296     1.3657    14.3309 </r>
       <r>    -0.9587     1.4884    14.4270 </r>
       <r>    -0.8879     5.7084    14.6932 </r>
       <r>    -0.8171     8.3577    15.2198 </r>
       <r>    -0.7462    11.7951    16.0056 </r>
       <r>    -0.6754    11.3536    16.8313 </r>
       <r>    -0.6046     8.1864    17.5188 </r>
       <r>    -0.5337     7.7586    18.0739 </r>
       <r>    -0.4629     2.4929    18.3114 </r>
       <r>    -0.3921     2.1698    18.4761 </r>
       <r>    -0.3212     2.8748    18.6646 </r>
       <r>    -0.2504     2.5116    18.8542 </r>
       <r>    -0.1796     3.9831    19.0606 </r>
       <r>    -0.1087     8.6804    19.4848 </r>
       <r>    -0.0379    14.1045    20.2190 </r>
       <r>     0.0329     8.5018    21.3154 </r>
       <r>     0.1038     5.0429    21.7134 </r>
       <r>     0.1746     6.2960    22.1168 </r>
       <r>     0.2454     5.8547    22.5519 </r>
       <r>     0.3163     3.8712    22.8697 </r>
       <r>     0.3871     3.6181    23.1349 </r>
       <r>     0.4579     3.1612    23.3764 </r>
       <r>     0.5288     3.1483    23.5886 </r>
       <r>     0.5996     3.6110    23.8824 </r>
       <r>     0.6704     2.0947    24.0787 </r>
       <r>     0.7413     1.9100    24.2161 </r>
       <r>     0.8121     8.0144    24.6077 </r>
       <r>     0.8829     1.9394    24.8758 </r>
       <r>     0.9538     1.7864    25.0038 </r>
       <r>     1.0246     4.1323    25.1767 </r>
       <r>     1.0954     6.7041    25.5960 </r>
       <r>     1.1663    10.3646    26.1920 </r>
       <r>     1.2371     8.2170    26.8119 </r>
       <r>     1.3079     8.3369    27.5150 </r>
       <r>     1.3788     6.8119    28.0318 </r>
       <r>     1.4496     6.6839    28.5069 </r>
       <r>     1.5204     4.5479    28.9801 </r>
       <r>     1.5913     3.0604    29.2139 </r>
       <r>     1.6621     5.4475    29.5535 </r>
       <r>     1.7329     5.2705    29.9193 </r>
       <r>     1.8038     4.8362    30.2843 </r>
       <r>     1.8746     4.4620    30.6078 </r>
       <r>     1.9454     4.9241    30.9430 </r>
       <r>     2.0163     5.1090    31.2966 </r>
       <r>     2.0871     3.7826    31.6270 </r>
       <r>     2.1579     2.5324    31.8119 </r>
       <r>     2.2288     4.7217    32.0750 </r>
       <r>     2.2996     6.1310    32.4239 </r>
       <r>     2.3704     8.2338    33.0104 </r>
       <r>     2.4413     5.5647    33.4992 </r>
       <r>     2.5121     5.4411    33.8883 </r>
       <r>     2.5829     5.2473    34.2668 </r>
       <r>     2.6538     4.6916    34.6184 </r>
       <r>     2.7246     3.9374    34.9242 </r>
       <r>     2.7954     3.5025    35.1812 </r>
       <r>     2.8663     2.9420    35.4202 </r>
       <r>     2.9371     2.8006    35.6324 </r>
       <r>     3.0079     1.9586    35.7995 </r>
       <r>     3.0788     0.5758    35.9097 </r>
       <r>     3.1496     0.5070    35.9482 </r>
       <r>     3.2204     0.4162    35.9885 </r>
       <r>     3.2913     0.0038    36.0000 </r>
       <r>     3.3621     0.0000    36.0000 </r>
       <r>     3.4329     0.0000    36.0000 </r>
       <r>     3.5038     0.0000    36.0000 </r>
       <r>     3.5746     0.0000    36.0000 </r>
       <r>     3.6454     0.0000    36.0000 </r>
       <r>     3.7163     0.0000    36.0000 </r>
       <r>     3.7871     0.0000    36.0000 </r>
       <r>     3.8579     0.0000    36.0000 </r>
       <r>     3.9288     0.0000    36.0000 </r>
       <r>     3.9996     0.0000    36.0000 </r>
       <r>     4.0704     0.0000    36.0000 </r>
       <r>     4.1413     0.0000    36.0000 </r>
       <r>     4.2121     0.0000    36.0000 </r>
       <r>     4.2829     0.0000    36.0000 </r>
       <r>     4.3538     0.0000    36.0000 </r>
       <r>     4.4246     0.0000    36.0000 </r>
       <r>     4.4954     0.0000    36.0000 </r>
       <r>     4.5663     0.0000    36.0000 </r>
       <r>     4.6371     0.0000    36.0000 </r>
       <r>     4.7079     0.0000    36.0000 </r>
       <r>     4.7788     0.0000    36.0000 </r>
       <r>     4.8496     0.7710    36.0403 </r>
       <r>     4.9204     0.9923    36.1027 </r>
       <r>     4.9913     2.6164    36.2194 </r>
       <r>     5.0621     4.0669    36.4771 </r>
       <r>     5.1329     7.5958    36.8593 </r>
       <r>     5.2038    10.6868    37.5404 </r>
       <r>     5.2746    27.1073    38.4584 </r>
       <r>     5.3455     2.4544    39.4652 </r>
       <r>     5.4163     3.6617    39.6451 </r>
       <r>     5.4871     6.2650    39.9785 </r>
       <r>     5.5580     8.5384    40.5537 </r>
       <r>     5.6288     8.5401    41.2025 </r>
       <r>     5.6996     6.2739    41.7030 </r>
       <r>     5.7705     8.2764    42.1743 </r>
       <r>     5.8413     5.5255    42.6865 </r>
       <r>     5.9121     3.9354    43.0035 </r>
       <r>     5.9830     3.0919    43.2592 </r>
       <r>     6.0538     2.0983    43.4452 </r>
       <r>     6.1246     3.2489    43.6067 </r>
       <r>     6.1955     1.7819    43.7552 </r>
       <r>     6.2663     2.1406    43.9440 </r>
       <r>     6.3371     0.0000    44.0000 </r>
       <r>     6.4080     0.0000    44.0000 </r>
       <r>     6.4788     0.0000    44.0000 </r>
       <r>     6.5496     0.0000    44.0000 </r>
       <r>     6.6205     0.0000    44.0000 </r>
       <r>     6.6913     0.0000    44.0000 </r>
       <r>     6.7621     0.0000    44.0000 </r>
       <r>     6.8330     0.0000    44.0000 </r>
       <r>     6.9038     0.0000    44.0000 </r>
       <r>     6.9746     0.0000    44.0000 </r>
       <r>     7.0455     0.0000    44.0000 </r>
       <r>     7.1163     0.0000    44.0000 </r>
       <r>     7.1871     0.0000    44.0000 </r>
       <r>     7.2580     0.0000    44.0000 </r>
       <r>     7.3288     0.0000    44.0000 </r>
       <r>     7.3996     0.0000    44.0000 </r>
       <r>     7.4705     0.0000    44.0000 </r>
       <r>     7.5413     0.0000    44.0000 </r>
       <r>     7.6121     0.0000    44.0000 </r>
       <r>     7.6830     0.0000    44.0000 </r>
       <r>     7.7538     0.0000    44.0000 </r>
       <r>     7.8246     0.0000    44.0000 </r>
       <r>     7.8955     0.0000    44.0000 </r>
       <r>     7.9663     0.0000    44.0000 </r>
       <r>     8.0371     0.0000    44.0000 </r>
       <r>     8.1080     0.0000    44.0000 </r>
       <r>     8.1788     0.0000    44.0000 </r>
       <r>     8.2496     0.0000    44.0000 </r>
       <r>     8.3205     0.0000    44.0000 </r>
      </set>
     </set>
    </array>
   </total>
  </dos>
 </calculation>
 <structure name="finalpos" >
  <crystal>
   <varray name="basis" >
    <v>       3.19031573       0.00000000       0.00000000 </v>
    <v>      -1.59515786       2.76289447       0.00000000 </v>
    <v>       0.00000000       0.00000000      14.87900430 </v>
   </varray>
   <i name="volume">    131.15106795 </i>
   <varray name="rec_basis" >
    <v>       0.31344860       0.18096963       0.00000000 </v>
    <v>       0.00000000       0.36193927       0.00000000 </v>
    <v>       0.00000000       0.00000000       0.06720880 </v>
   </varray>
  </crystal>
  <varray name="positions" >
   <v>       0.33333300       0.66666700       0.25000000 </v>
   <v>       0.66666700       0.33333300       0.75000000 </v>
   <v>       0.33333300       0.66666700       0.85517400 </v>
   <v>       0.66666700       0.33333300       0.14482600 </v>
   <v>       0.66666600       0.33333300       0.35517400 </v>
   <v>       0.33333400       0.66666700       0.64482600 </v>
  </varray>
 </structure>
</modeling>
