unknown system                          
   1.00000000000000     
     3.190316    0.000000    0.000000
    -1.595158    2.762894    0.000000
     0.000000    0.000000   16.879004
   Mo   S 
     1     2
Direct
  0.333333  0.666667  0.220377
  0.666667  0.333333  0.127666
  0.666666  0.333333  0.313089
 
   24   24  140
 0.23229     0.23572     0.24507     0.26120     0.28556     0.31778     0.35533     0.39504     0.43398     0.46945    
 0.49892     0.51904     0.52522     0.51498     0.49198     0.46376     0.43398     0.40011     0.36038     0.31967    
 0.28556     0.26117     0.24492     0.23528     0.23557     0.23586     0.24442     0.26156     0.28827     0.32488    
 0.37032     0.42209     0.47573     0.52542     0.56686     0.59843     0.61767     0.61892     0.59823     0.55991    
 0.51407     0.46761     0.42086     0.37323     0.32800     0.29011     0.26213     0.24412     0.24515     0.23962    
 0.24488     0.26181     0.29027     0.32934     0.37884     0.43845     0.50465     0.57014     0.62730     0.67187    
 0.70243     0.71670     0.71004     0.67902     0.62663     0.56260     0.49751     0.43675     0.38097     0.33100    
 0.29018     0.26154     0.26207     0.24880     0.24716     0.26071     0.29017     0.33173     0.38372     0.44796    
 0.52278     0.60055     0.67302     0.73416     0.77827     0.80130     0.80368     0.78635     0.74591     0.68076    
 0.60035     0.52025     0.44859     0.38462     0.32923     0.28777     0.28556     0.26459     0.25393     0.25886    
 0.28556     0.32904     0.38274     0.44951     0.53155     0.61974     0.70333     0.77933     0.84283     0.88100    
 0.88795     0.87290     0.84282     0.79041     0.71114     0.61891     0.53155     0.45270     0.38074     0.32271    
 0.31354     0.28461     0.26672     0.25973     0.27711     0.31936     0.37354     0.43856     0.52386     0.62342    
 0.71815     0.80269     0.88240     0.94598     0.97124     0.95789     0.92564     0.87994     0.80889     0.71462    
 0.61779     0.52901     0.44375     0.36681     0.34654     0.30530     0.28311     0.26658     0.26930     0.30440    
 0.35849     0.41877     0.49762     0.60279     0.71205     0.80464     0.88909     0.97190      1.0286      1.0361    
  1.0069     0.96176     0.89600     0.80190     0.69730     0.60211     0.51157     0.42028     0.38727     0.32685    
 0.29839     0.27816     0.26659     0.28719     0.33893     0.39784     0.46457     0.56105     0.67989     0.78669    
 0.87294     0.95763      1.0356      1.0745      1.0654      1.0296     0.97372     0.88491     0.77257     0.66703    
 0.57456     0.47899     0.43398     0.35288     0.31067     0.28899     0.26950     0.27128     0.31252     0.37327    
 0.43398     0.51280     0.62562     0.74581     0.84283     0.92499      1.0060      1.0650      1.0788      1.0589    
  1.0207     0.95109     0.84282     0.72569     0.62640     0.53311     0.47738     0.38414     0.32293     0.29497    
 0.27430     0.26114     0.28218     0.33750     0.39952     0.46577     0.56019     0.67979     0.79075     0.88002    
 0.96137      1.0296      1.0593      1.0498      1.0233     0.97764     0.89153     0.77536     0.66627     0.57325    
 0.50765     0.41474     0.33869     0.29768     0.27629     0.25799     0.25873     0.29589     0.35440     0.41616    
 0.49288     0.59718     0.71016     0.80873     0.89579     0.97413      1.0216      1.0237     0.99905     0.96425    
 0.90362     0.80545     0.69459     0.59765     0.52242     0.43639     0.35640     0.30183     0.27418     0.25651    
 0.24746     0.26372     0.30741     0.36312     0.42821     0.51378     0.61515     0.71255     0.80042     0.88447    
 0.95175     0.97790     0.96359     0.93068     0.88343     0.80784     0.70840     0.61003     0.52522     0.44512    
 0.36972     0.30891     0.27135     0.25109     0.24061     0.24516     0.27134     0.31430     0.36878     0.43905    
 0.52522     0.61381     0.69449     0.77102     0.84283     0.89188     0.90293     0.88243     0.84283     0.78347    
 0.70220     0.61128     0.51836     0.44267     0.37363     0.31511     0.27164     0.24417     0.23070     0.23095    
 0.24611     0.27510     0.31664     0.37286     0.44448     0.52363     0.59873     0.66549     0.72581     0.77627    
 0.80618     0.80814     0.78366     0.73748     0.67342     0.59746     0.50072     0.43250     0.36875     0.31586    
 0.27422     0.24224     0.22215     0.21715     0.22583     0.24455     0.27332     0.31509     0.37058     0.43651    
 0.50676     0.57295     0.62741     0.66793     0.69641     0.71115     0.70512     0.67479     0.62573     0.56628    
 0.47170     0.41604     0.35899     0.31081     0.27470     0.24531     0.22178     0.21024     0.21242     0.22332    
 0.24143     0.27043     0.31045     0.35794     0.41304     0.47540     0.53438     0.57614     0.59967     0.61330    
 0.61698     0.60191     0.56702     0.52172     0.43398     0.39300     0.34660     0.30328     0.27136     0.24765    
 0.22683     0.21267     0.20985     0.21476     0.22404     0.24219     0.27134     0.30456     0.33872     0.38130    
 0.43398     0.48200     0.51146     0.52539     0.53155     0.52648     0.50443     0.47085     0.39231     0.36419    
 0.33111     0.29589     0.26752     0.24791     0.23173     0.21894     0.21453     0.21697     0.22076     0.22890    
 0.24853     0.27563     0.29949     0.32114     0.35122     0.38948     0.42237     0.44195     0.45178     0.45333    
 0.44205     0.41907     0.35155     0.33308     0.31249     0.28856     0.26658     0.25086     0.23872     0.22813    
 0.22306     0.22490     0.22772     0.22915     0.23683     0.25576     0.27818     0.29493     0.30875     0.32697    
 0.34842     0.36654     0.37896     0.38549     0.38285     0.36974     0.31541     0.30425     0.29317     0.28050    
 0.26789     0.25875     0.25236     0.24581     0.24068     0.24069     0.24374     0.24413     0.24262     0.24670    
 0.25949     0.27539     0.28823     0.29765     0.30591     0.31386     0.32166     0.32846     0.33085     0.32580    
 0.28556     0.28048     0.27626     0.27258     0.26948     0.26867     0.27035     0.27185     0.27136     0.27085    
 0.27243     0.27391     0.27135     0.26515     0.26062     0.26226     0.26950     0.27783     0.28314     0.28483    
 0.28556     0.28768     0.29005     0.28958     0.26204     0.26194     0.26322     0.26659     0.27183     0.27902    
 0.28859     0.29947     0.30871     0.31396     0.31589     0.31663     0.31585     0.31016     0.29770     0.28218    
 0.27051     0.26623     0.26661     0.26670     0.26471     0.26251     0.26184     0.26211     0.24499     0.24817    
 0.25387     0.26319     0.27618     0.29166     0.30879     0.32751     0.34652     0.36212     0.37062     0.37208    
 0.36964     0.36471     0.35444     0.33569     0.31060     0.28642     0.26934     0.25973     0.25385     0.24893    
 0.24518     0.24384     0.23512     0.23945     0.24790     0.26164     0.28147     0.30603     0.33281     0.36032    
 0.38781     0.41319     0.43223     0.44085     0.43842     0.42836     0.41447     0.39662     0.37161     0.33908    
 0.30503     0.27735     0.25898     0.24730     0.23935     0.23501     0.30556     0.31129     0.32753     0.35531    
 0.39611     0.44909     0.51057     0.57572     0.63952     0.69712     0.74402     0.77530     0.78527     0.77099    
 0.73663     0.69103     0.63950     0.58112     0.51597     0.45110     0.39611     0.35528     0.32737     0.31082    
 0.31113     0.31143     0.32641     0.35625     0.40168     0.46242     0.53627     0.61907     0.70406     0.78280    
 0.84850     0.89759     0.92617     0.92751     0.89741     0.84111     0.77073     0.69545     0.61780     0.53937    
 0.46570     0.40362     0.35687     0.32611     0.32760     0.31792     0.32733     0.35652     0.40479     0.47029    
 0.55169     0.64705     0.75065     0.85233     0.94144      1.0111      1.0578      1.0778      1.0659      1.0187    
 0.94075     0.84434     0.74307     0.64523     0.55390     0.47203     0.40469     0.35624     0.35622     0.33301    
 0.33129     0.35480     0.40367     0.47279     0.55903     0.66267     0.77999     0.90050      1.0127      1.1073    
  1.1756      1.2113      1.2138      1.1841      1.1197      1.0209     0.90028     0.77729     0.66332     0.55998    
 0.47015     0.40112     0.39611     0.35832     0.34169     0.35225     0.39611     0.46679     0.55576     0.66427    
 0.79273     0.92915      1.0594      1.1770      1.2737      1.3331      1.3470      1.3245      1.2737      1.1888    
  1.0676     0.92826     0.79273     0.66769     0.55367     0.46008     0.44461     0.39149     0.36079     0.35337    
 0.38353     0.45078     0.53968     0.64712     0.78110     0.93303      1.0800      1.2132      1.3348      1.4293    
  1.4703      1.4562      1.4077      1.3322      1.2198      1.0763     0.92706     0.78659     0.65266     0.53256    
 0.50126     0.42838     0.38631     0.36239     0.37164     0.42745     0.51399     0.61559     0.74319     0.90286    
  1.0686      1.2153      1.3485      1.4711      1.5538      1.5696      1.5308      1.4604      1.3558      1.2124    
  1.0529     0.90215     0.75801     0.61717     0.56747     0.46830     0.41303     0.37844     0.36612     0.40112    
 0.48117     0.57876     0.69226     0.84270      1.0200      1.1848      1.3247      1.4560      1.5691      1.6265    
  1.6168      1.5627      1.4731      1.3374      1.1698      1.0063     0.85706     0.70754     0.63950     0.51376    
 0.43822     0.39564     0.36818     0.37678     0.44016     0.53541     0.63950     0.76940     0.93970      1.1197    
  1.2737      1.4070      1.5298      1.6164      1.6393      1.6099      1.5455      1.4347      1.2737      1.0983    
 0.94052     0.79097     0.70552     0.56390     0.46391     0.40917     0.37411     0.36013     0.39557     0.47935    
 0.58019     0.69314     0.84143      1.0195      1.1888      1.3321      1.4599      1.5627      1.6103      1.6002    
  1.5560      1.4771      1.3443      1.1725      1.0051     0.85529     0.75329     0.61083     0.49256     0.41996    
 0.37879     0.35301     0.36015     0.41809     0.50926     0.61232     0.73756     0.89627      1.0660      1.2192    
  1.3553      1.4734      1.5465      1.5564      1.5224      1.4629      1.3636      1.2157      1.0494     0.89678    
 0.77889     0.64433     0.52117     0.43197     0.38030     0.34987     0.34026     0.36923     0.43796     0.52835    
 0.63564     0.76969     0.92347      1.0734      1.2104      1.3368      1.4354      1.4775      1.4623      1.4130    
  1.3357      1.2183      1.0690     0.91804     0.78527     0.65914     0.54179     0.44553     0.38129     0.34434    
 0.32790     0.33803     0.38128     0.45129     0.54081     0.65270     0.78527     0.92206      1.0493      1.1679    
  1.2737      1.3449      1.3632      1.3348      1.2737      1.1811      1.0575     0.91937     0.77456     0.65655    
 0.54822     0.45547     0.38465     0.33809     0.31471     0.31493     0.34005     0.38831     0.45711     0.54739    
 0.65846     0.78019     0.89793      1.0043      1.0984      1.1737      1.2169      1.2190      1.1816      1.1108    
  1.0127     0.89656     0.74589     0.64021     0.54079     0.45627     0.38851     0.33687     0.30453     0.29543    
 0.30837     0.33929     0.38757     0.45545     0.54268     0.64447     0.75235     0.85498     0.94157      1.0073    
  1.0520      1.0726      1.0612      1.0145     0.93980     0.84788     0.69946     0.61219     0.52395     0.44757    
 0.38785     0.34007     0.30382     0.28585     0.28816     0.30546     0.33601     0.38336     0.44714     0.52280    
 0.60904     0.70342     0.79229     0.85870     0.89958     0.92232     0.92619     0.90191     0.84905     0.77889    
 0.63952     0.57327     0.50097     0.43356     0.38130     0.34168     0.30942     0.28841     0.28344     0.29062    
 0.30650     0.33597     0.38128     0.43487     0.49260     0.56089     0.63950     0.71072     0.75790     0.78278    
 0.79273     0.78387     0.75043     0.69894     0.57287     0.52575     0.47257     0.41811     0.37328     0.34096    
 0.31577     0.29734     0.29037     0.29292     0.29922     0.31281     0.34167     0.38185     0.42188     0.46201    
 0.51202     0.56983     0.61938     0.65077     0.66673     0.66833     0.65084     0.61591     0.50662     0.47494    
 0.44011     0.40234     0.36849     0.34390     0.32592     0.31199     0.30547     0.30710     0.31035     0.31305    
 0.32395     0.34910     0.38077     0.40913     0.43620     0.46845     0.50324     0.53225     0.55180     0.56090    
 0.55587     0.53564     0.44659     0.42729     0.40747     0.38657     0.36729     0.35381     0.34546     0.33874    
 0.33438     0.33523     0.33844     0.33798     0.33536     0.33947     0.35457     0.37525     0.39483     0.41227    
 0.42901     0.44491     0.45899     0.46936     0.47186     0.46335     0.39611     0.38710     0.37904     0.37249    
 0.36817     0.36812     0.37245     0.37780     0.38130     0.38384     0.38664     0.38705     0.38129     0.37073    
 0.36213     0.36129     0.36818     0.37810     0.38635     0.39169     0.39611     0.40106     0.40456     0.40304    
 0.35620     0.35551     0.35708     0.36241     0.37172     0.38505     0.40239     0.42185     0.43926     0.45090    
 0.45631     0.45709     0.45291     0.44085     0.42001     0.39557     0.37598     0.36576     0.36244     0.36076    
 0.35844     0.35671     0.35657     0.35684     0.32744     0.33235     0.34162     0.35703     0.37895     0.40591    
 0.43625     0.46878     0.50088     0.52723     0.54274     0.54655     0.54171     0.53001     0.50931     0.47747    
 0.43814     0.40032     0.37169     0.35336     0.34160     0.33316     0.32765     0.32579     0.31064     0.31777    
 0.33206     0.35517     0.38813     0.42914     0.47465     0.52168     0.56781     0.60920     0.63992     0.65460    
 0.65201     0.63579     0.61054     0.57716     0.53366     0.48131     0.42809     0.38377     0.35237     0.33143    
 0.31763     0.31051     0.40128     0.41094     0.43874     0.48527     0.55133     0.63493     0.73076     0.83191    
 0.93090      1.0201      1.0922      1.1398      1.1553      1.1352      1.0843      1.0136     0.93088     0.83770    
 0.73654     0.63709     0.55135     0.48526     0.43858     0.41043     0.41077     0.41108     0.43638     0.48621    
 0.56017     0.65651     0.77133     0.89842      1.0285      1.1497      1.2518      1.3277      1.3707      1.3721    
  1.3275      1.2439      1.1368      1.0193     0.89712     0.77464     0.65999     0.56223     0.48688     0.43608    
 0.43881     0.42271     0.43853     0.48650     0.56453     0.66890     0.79636     0.94313      1.1011      1.2568    
  1.3953      1.5049      1.5779      1.6074      1.5866      1.5130      1.3946      1.2483      1.0931     0.94115    
 0.79867     0.67071     0.56442     0.48620     0.48624     0.44818     0.44635     0.48474     0.56227     0.67153    
 0.80712     0.96759      1.1472      1.3325      1.5075      1.6572      1.7669      1.8249      1.8276      1.7761    
  1.6706      1.5162      1.3322      1.1443     0.96824     0.80812     0.66872     0.55955     0.55135     0.48908    
 0.46377     0.48261     0.55134     0.66114     0.80062     0.96922      1.1659      1.3759      1.5810      1.7691    
  1.9244      2.0226      2.0496      2.0134      1.9244      1.7816      1.5898      1.3750      1.1659     0.97290    
 0.79843     0.65401     0.63018     0.54249     0.49346     0.48556     0.53402     0.63676     0.77495     0.94313    
  1.1483      1.3800      1.6113      1.8279      2.0247      2.1769      2.2487      2.2335      2.1538      2.0219    
  1.8349      1.6073      1.3737      1.1542     0.94908     0.76739     0.72086     0.60326     0.53303     0.49879    
 0.51740     0.60229     0.73446     0.89478      1.0932      1.3350      1.5908      1.8300      2.0517      2.2497    
  2.3830      2.4158      2.3585      2.2382      2.0595      1.8270      1.5741      1.3342      1.1090     0.89644    
 0.82313     0.66946     0.57643     0.52165     0.50849     0.56369     0.68320     0.83524      1.0160      1.2466    
  1.5152      1.7773      2.0140      2.2335      2.4154      2.5100      2.4997      2.4086      2.2518      2.0275    
  1.7614      1.5007      1.2619      1.0322     0.93088     0.74210     0.61973     0.54770     0.50925     0.52758    
 0.62175     0.76516     0.93088      1.1355      1.3935      1.6705      1.9244      2.1531      2.3574      2.4992    
  2.5411      2.4923      2.3742      2.1827      1.9244      1.6477      1.3943      1.1584      1.0290     0.81832    
 0.66373     0.57118     0.51589     0.50100     0.55670     0.68015     0.83560      1.0158      1.2442      1.5140    
  1.7811      2.0214      2.2375      2.4086      2.4928      2.4820      2.4013      2.2559      2.0345      1.7636    
  1.4986      1.2590      1.1021     0.88772     0.70953     0.59212     0.52271     0.48644     0.50287     0.59016    
 0.72734     0.88928      1.0853      1.3263      1.5867      1.8333      2.0585      2.2520      2.3752      2.4018    
  2.3496      2.2408      2.0674      1.8296      1.5690      1.3268      1.1436     0.93758     0.75241     0.61358    
 0.52711     0.47811     0.46787     0.51532     0.62003     0.76013     0.92832      1.1338      1.3678      1.6027    
  1.8239      2.0265      2.1834      2.2565      2.2403      2.1596      2.0253      1.8323      1.5980      1.3620    
  1.1553     0.96087     0.78250     0.63470     0.53108     0.46909     0.44370     0.46232     0.53108     0.64089    
 0.78148     0.95400      1.1554      1.3663      1.5689      1.7587      1.9244      2.0355      2.0674      2.0247    
  1.9244      1.7728      1.5777      1.3634      1.1390     0.95814     0.79219     0.64891     0.53682     0.46069    
 0.42171     0.42188     0.46269     0.54070     0.65068     0.79127     0.96013      1.1450      1.3281      1.4977    
  1.6478      1.7656      1.8318      1.8340      1.7739      1.6610      1.5067      1.3266      1.0941     0.93321    
 0.78146     0.64976     0.54169     0.45860     0.40603     0.39000     0.41003     0.46113     0.54072     0.64887    
 0.78341     0.93775      1.1011      1.2587      1.3954      1.5017      1.5732      1.6034      1.5829      1.5094    
  1.3936      1.2511      1.0225     0.88912     0.75541     0.63690     0.54019     0.46194     0.40358     0.37402    
 0.37645     0.40534     0.45769     0.53545     0.63639     0.75415     0.88583      1.0268      1.1598      1.2636    
  1.3315      1.3687      1.3727      1.3339      1.2534      1.1456     0.93090     0.82823     0.71850     0.61534    
 0.53108     0.46442     0.41115     0.37672     0.36725     0.37905     0.40810     0.45845     0.53108     0.61665    
 0.70958     0.81510     0.93088      1.0356      1.1089      1.1502      1.1659      1.1513      1.1009      1.0231    
 0.82894     0.75484     0.67293     0.59021     0.51967     0.46548     0.42281     0.39203     0.37879     0.38144    
 0.39398     0.41971     0.46628     0.52874     0.59414     0.66171     0.74027     0.82567     0.89877     0.94707    
 0.97190     0.97356     0.94711     0.89512     0.72661     0.67657     0.62170     0.56391     0.51176     0.47178    
 0.44163     0.41883     0.40700     0.40703     0.41211     0.41990     0.43955     0.47730     0.52478     0.57115    
 0.61760     0.66965     0.72293     0.76702     0.79647     0.80912     0.80075     0.77065     0.63229     0.60214    
 0.57047     0.53800     0.50860     0.48726     0.47341     0.46312     0.45675     0.45687     0.46023     0.46051    
 0.45952     0.46705     0.48807     0.51708     0.54686     0.57562     0.60392     0.63046     0.65286     0.66791    
 0.67053     0.65747     0.55133     0.53783     0.52528     0.51529     0.50924     0.50948     0.51592     0.52440    
 0.53108     0.53599     0.53977     0.53938     0.53108     0.51693     0.50494     0.50219     0.50925     0.52130    
 0.53308     0.54270     0.55134     0.55953     0.56429     0.56160     0.48622     0.48608     0.48953     0.49882    
 0.51448     0.53643     0.56396     0.59413     0.62133     0.64040     0.64981     0.65066     0.64259     0.62307    
 0.59218     0.55667     0.52674     0.50815     0.49885     0.49343     0.48920     0.48679     0.48656     0.48683    
 0.43864     0.44750     0.46371     0.48947     0.52519     0.56884     0.61764     0.66895     0.71841     0.75886    
 0.78348     0.79038     0.78241     0.76184     0.72739     0.67818     0.61963     0.56287     0.51744     0.48554    
 0.46368     0.44835     0.43886     0.43570     0.41025     0.42258     0.44718     0.48570     0.53889     0.60409    
 0.67625     0.75055     0.82250     0.88599     0.93289     0.95601     0.95325     0.92847     0.88740     0.83246    
 0.76332     0.68334     0.60295     0.53425     0.48274     0.44650     0.42240     0.41008     0.53052     0.54594    
 0.59048     0.66369     0.76499     0.89080      1.0341      1.1859      1.3357      1.4718      1.5824      1.6553    
  1.6796      1.6503      1.5739      1.4649      1.3357      1.1921      1.0403     0.89312     0.76502     0.66370    
 0.59031     0.54538     0.54574     0.54608     0.58583     0.66344     0.77683     0.92239      1.0945      1.2851    
  1.4818      1.6682      1.8277      1.9469      2.0134      2.0149      1.9466      1.8192      1.6544      1.4721    
  1.2837      1.0981     0.92610     0.77902     0.66415     0.58550     0.59057     0.56574     0.59026     0.66375    
 0.78234     0.94022      1.1325      1.3539      1.5939      1.8341      2.0523      2.2282      2.3454      2.3908    
  2.3547      2.2369      2.0516      1.8251      1.5852      1.3518      1.1349     0.94214     0.78221     0.66342    
 0.66475     0.60690     0.60494     0.66312     0.77904     0.94300      1.1479      1.3913      1.6659      1.9539    
  2.2319      2.4744      2.6548      2.7511      2.7540      2.6647      2.4887      2.2413      1.9536      1.6627    
  1.3919      1.1489     0.94000     0.77615     0.76502     0.67044     0.63381     0.66351     0.76501     0.92731    
  1.1370      1.3929      1.6937      2.0213      2.3503      2.6579      2.9141      3.0798      3.1303      3.0700    
  2.9141      2.6712      2.3597      2.0202      1.6937      1.3969      1.1347     0.91970     0.88573     0.75224    
 0.67942     0.67099     0.74322     0.89279      1.0984      1.3538      1.6669      2.0256      2.3966      2.7554    
  3.0827      3.3354      3.4613      3.4451      3.3107      3.0796      2.7629      2.3924      2.0188      1.6733    
  1.3602      1.0903      1.0235     0.84579     0.73878     0.69135     0.72206     0.84477      1.0381      1.2813    
  1.5854      1.9565      2.3606      2.7577      3.1331      3.4626      3.6848      3.7479      3.6585      3.4503    
  3.1415      2.7545      2.3429      1.9557      1.6023      1.2830      1.1765     0.94783     0.80480     0.72403    
 0.70993     0.79112     0.96251      1.1895      1.4686      1.8232      2.2402      2.6667      3.0711      3.4453    
  3.7476      3.9077      3.8967      3.7404      3.4648      3.0856      2.6496      2.2247      1.8396      1.4858    
  1.3357      1.0578     0.87232     0.76197     0.70958     0.74044     0.87445      1.0824      1.3357      1.6530    
  2.0505      2.4887      2.9141      3.3099      3.6574      3.8962      3.9720      3.8888      3.6753      3.3415    
  2.9141      2.4642      2.0514      1.6775      1.4814      1.1704     0.94081     0.79838     0.71717     0.70128    
 0.78294     0.95833      1.1888      1.4672      1.8196      2.2379      2.6700      3.0786      3.4493      3.7403    
  3.8893      3.8778      3.7325      3.4690      3.0926      2.6514      2.2215      1.8354      1.5929      1.2717    
  1.0097     0.83231     0.72632     0.67679     0.70514     0.83025      1.0287      1.2734      1.5749      1.9453    
  2.3548      2.7602      3.1398      3.4648      3.6764      3.7331      3.6490      3.4528      3.1492      2.7562    
  2.3359      1.9459      1.6593      1.3453      1.0718     0.86571     0.73368     0.66092     0.64996     0.72108    
 0.87267      1.0801      1.3354      1.6488      2.0102      2.3857      2.7501      3.0840      3.3423      3.4699    
  3.4526      3.3168      3.0828      2.7591      2.3807      2.0041      1.6796      1.3811      1.1147     0.89624    
 0.74058     0.64623     0.60944     0.63894     0.74057     0.90293      1.1137      1.3737      1.6796      2.0087    
  2.3358      2.6460      2.9141      3.0942      3.1498      3.0826      2.9141      2.6612      2.3452      2.0055    
  1.6544      1.3782      1.1289     0.91573     0.74861     0.63396     0.57489     0.57500     0.63600     0.75276    
 0.91765      1.1278      1.3803      1.6609      1.9473      2.2205      2.4643      2.6542      2.7597      2.7620    
  2.6630      2.4785      2.2302      1.9456      1.5843      1.3406      1.1136     0.91664     0.75448     0.63004    
 0.55118     0.52616     0.55533     0.63269     0.75348     0.91567      1.1156      1.3455      1.5919      1.8351    
  2.0525      2.2257      2.3419      2.3882      2.3523      2.2340      2.0506      1.8270      1.4744      1.2732    
  1.0750     0.89862     0.75217     0.63354     0.54611     0.50129     0.50383     0.54795     0.62908     0.74717    
 0.89800      1.0736      1.2698      1.4790      1.6789      1.8413      1.9529      2.0135      2.0178      1.9554    
  1.8305      1.6638      1.3357      1.1809      1.0193     0.86767     0.74057     0.63784     0.55653     0.50413    
 0.48856     0.50658     0.55336     0.63162     0.74057     0.86894      1.0097      1.1670      1.3357      1.4894    
  1.6022      1.6690      1.6937      1.6701      1.5936      1.4762      1.1828      1.0714     0.95063     0.83034    
 0.72577     0.64235     0.57601     0.52830     0.50630     0.50909     0.53035     0.57280     0.64329     0.73536    
 0.83444     0.93869      1.0559      1.1792      1.2855      1.3581      1.3959      1.3976      1.3581      1.2816    
  1.0297     0.95544     0.87440     0.79063     0.71465     0.65417     0.60728     0.57182     0.55217     0.54972    
 0.55751     0.57291     0.60508     0.66005     0.72850     0.79839     0.87009     0.94802      1.0257      1.0899    
  1.1326      1.1500      1.1371      1.0938     0.88801     0.84463     0.79840     0.75157     0.70937     0.67762    
 0.65587     0.63987     0.62978     0.62823     0.63174     0.63368     0.63599     0.64912     0.67849     0.71843    
 0.76108     0.80391     0.84647     0.88601     0.91848     0.93916     0.94192     0.92337     0.76499     0.74727    
 0.73049     0.71721     0.70958     0.71030     0.71901     0.73072     0.74057     0.74779     0.75251     0.75136    
 0.74058     0.72282     0.70733     0.70249     0.70958     0.72366     0.73884     0.75247     0.76501     0.77614    
 0.78208     0.77833     0.66471     0.66723     0.67522     0.69136     0.71637     0.74994     0.79070     0.83446    
 0.87396     0.90230     0.91671     0.91764     0.90471     0.87587     0.83238     0.78287     0.73955     0.70961    
 0.69142     0.67940     0.67057     0.66533     0.66382     0.66410     0.59039     0.60618     0.63376     0.67515    
 0.73039     0.79669     0.87013     0.94645      1.0192      1.0787      1.1157      1.1269      1.1146      1.0819    
  1.0288     0.95626     0.87222     0.79031     0.72210     0.67094     0.63371     0.60708     0.59061     0.58510    
 0.54519     0.56560     0.60583     0.66681     0.74839     0.84668     0.95510      1.0668      1.1749      1.2699    
  1.3403      1.3759      1.3729      1.3356      1.2714      1.1855      1.0805     0.96267     0.84544     0.74341    
 0.66366     0.60511     0.56539     0.54501     0.70621     0.72918     0.79569     0.90397      1.0521      1.2354    
  1.4458      1.6723      1.9002      2.1110      2.2841      2.3989      2.4378      2.3935      2.2749      2.1035    
  1.9002      1.6791      1.4525      1.2379      1.0521     0.90397     0.79551     0.72858     0.72898     0.72935    
 0.78754     0.90099      1.0664      1.2794      1.5338      1.8199      2.1214      2.4137      2.6689      2.8613    
  2.9677      2.9693      2.8610      2.6598      2.3990      2.1111      1.8185      1.5376      1.2834      1.0687    
 0.90173     0.78716     0.79580     0.76005     0.79546     0.90129      1.0729      1.3040      1.5899      1.9252    
  2.2960      2.6756      3.0283      3.3175      3.5108      3.5832      3.5207      3.3268      3.0276      2.6659    
  2.2867      1.9229      1.5925      1.3060      1.0727     0.90095     0.90510     0.82251     0.82038     0.90332    
  1.0687      1.3069      1.6118      1.9823      2.4096      2.8685      3.3212      3.7230      4.0255      4.1882    
  4.1914      4.0361      3.7384      3.3313      2.8680      2.4061      1.9830      1.6129      1.3037      1.0657    
  1.0521     0.91636     0.86574     0.90893      1.0521      1.2846      1.5947      1.9841      2.4522      2.9757    
  3.5156      4.0286      4.4589      4.7414      4.8324      4.7309      4.4589      4.0429      3.5256      2.9744    
  2.4522      1.9884      1.5922      1.2765      1.2300      1.0361     0.93335     0.92431      1.0265      1.2376    
  1.5379      1.9251      2.4106      2.9802      3.5890      4.1925      4.7442      5.1700      5.3894      5.3720    
  5.1435      4.7409      4.2005      3.5845      2.9730      2.4175      1.9320      1.5293      1.4346      1.1740    