unknown system                          
   1.00000000000000     
     3.190316    0.000000    0.000000
    -1.595158    2.762894    0.000000
     0.000000    0.000000   16.879004
   Mo   S 
     1     2
Direct
  0.333333  0.666667  0.220377
  0.666667  0.333333  0.127666
  0.666666  0.333333  0.313089
 
   24   24  140
 0.23228937504E+00 0.23571666308E+00 0.24506926118E+00 0.26120370612E+00 0.28556497303E+00
 0.31778242440E+00 0.35532823432E+00 0.39504346814E+00 0.43397862452E+00 0.46944993728E+00
 0.49892422194E+00 0.51903644857E+00 0.52522068699E+00 0.51497881395E+00 0.49198091861E+00
 0.46375657904E+00 0.43397777288E+00 0.40010643354E+00 0.36037807279E+00 0.31966923138E+00
 0.28556157997E+00 0.26117056215E+00 0.24492200933E+00 0.23528146295E+00 0.23556869159E+00
 0.23586089440E+00 0.24442236891E+00 0.26155697781E+00 0.28827141707E+00 0.32488062495E+00
 0.37031703506E+00 0.42208870966E+00 0.47573285148E+00 0.52542234674E+00 0.56686209710E+00
 0.59843028415E+00 0.61767045924E+00 0.61891658432E+00 0.59823475904E+00 0.55991410423E+00
 0.51407343131E+00 0.46761075452E+00 0.42086238965E+00 0.37322752311E+00 0.32799853847E+00
 0.29011475961E+00 0.26212610697E+00 0.24411658243E+00 0.24514781158E+00 0.23961737825E+00
 0.24487967091E+00 0.26181015850E+00 0.29027438514E+00 0.32934421809E+00 0.37884297985E+00
 0.43844724043E+00 0.50465421352E+00 0.57014439070E+00 0.62729799341E+00 0.67186813571E+00
 0.70242982332E+00 0.71670285631E+00 0.71004096790E+00 0.67902083495E+00 0.62662666537E+00
 0.56259838159E+00 0.49750533878E+00 0.43675227900E+00 0.38096782139E+00 0.33099640886E+00
 0.29017894864E+00 0.26154433742E+00 0.26206815979E+00 0.24879630286E+00 0.24716159169E+00
 0.26071152130E+00 0.29016950309E+00 0.33173095270E+00 0.38372221872E+00 0.44795662930E+00
 0.52277977463E+00 0.60055346379E+00 0.67302458574E+00 0.73416401044E+00 0.77827269709E+00
 0.80130264085E+00 0.80368121895E+00 0.78634941782E+00 0.74591249407E+00 0.68076313619E+00
 0.60034600124E+00 0.52025000194E+00 0.44859489783E+00 0.38461849023E+00 0.32922981215E+00
 0.28776638756E+00 0.28556156555E+00 0.26458613310E+00 0.25392952006E+00 0.25886371685E+00
 0.28556206831E+00 0.32903598780E+00 0.38273814269E+00 0.44951268539E+00 0.53155191654E+00
 0.61973651552E+00 0.70332803852E+00 0.77933481816E+00 0.84282873096E+00 0.88099966641E+00
 0.88794947807E+00 0.87289533985E+00 0.84282281226E+00 0.79041372282E+00 0.71114032283E+00
 0.61891408045E+00 0.53154664729E+00 0.45270318303E+00 0.38074203284E+00 0.32270542654E+00
 0.31354316871E+00 0.28461350963E+00 0.26672230645E+00 0.25973257670E+00 0.27710942304E+00
 0.31935746152E+00 0.37353613277E+00 0.43856183208E+00 0.52385884369E+00 0.62341532941E+00
 0.71814515532E+00 0.80269433238E+00 0.88239927155E+00 0.94597851090E+00 0.97124050503E+00
 0.95788760661E+00 0.92563924638E+00 0.87993752955E+00 0.80889341221E+00 0.71462412082E+00
 0.61779390288E+00 0.52901164175E+00 0.44374734154E+00 0.36681425820E+00 0.34653876129E+00
 0.30529894393E+00 0.28310567416E+00 0.26658409893E+00 0.26929743422E+00 0.30440478806E+00
 0.35848622917E+00 0.41876929163E+00 0.49761664641E+00 0.60279104729E+00 0.71204576201E+00
 0.80463734959E+00 0.88909228082E+00 0.97190019346E+00 0.10285612411E+01 0.10360630933E+01
 0.10068856665E+01 0.96175877983E+00 0.89599803206E+00 0.80189837591E+00 0.69730100253E+00
 0.60211258231E+00 0.51157045754E+00 0.42028064352E+00 0.38727290676E+00 0.32684594243E+00
 0.29838527637E+00 0.27816467312E+00 0.26658912942E+00 0.28718966408E+00 0.33893450649E+00
 0.39783819244E+00 0.46457440299E+00 0.56105321709E+00 0.67989474036E+00 0.78669170520E+00
 0.87294414877E+00 0.95763356953E+00 0.10356437029E+01 0.10745309032E+01 0.10653841298E+01
 0.10296030624E+01 0.97372333430E+00 0.88490705619E+00 0.77257432173E+00 0.66703198965E+00
 0.57456291920E+00 0.47899354370E+00 0.43397778050E+00 0.35288300013E+00 0.31067195463E+00
 0.28899379937E+00 0.26949940324E+00 0.27127914620E+00 0.31252433783E+00 0.37327447346E+00
 0.43397864589E+00 0.51280374777E+00 0.62561919630E+00 0.74580917224E+00 0.84283156974E+00
 0.92499178429E+00 0.10059743709E+01 0.10649907829E+01 0.10787840522E+01 0.10588957557E+01
 0.10207249806E+01 0.95108722475E+00 0.84282284545E+00 0.72569300714E+00 0.62640087140E+00
 0.53310811476E+00 0.47738120500E+00 0.38413938481E+00 0.32293041985E+00 0.29496647646E+00
 0.27429662814E+00 0.26113710475E+00 0.28217753105E+00 0.33749673748E+00 0.39952094191E+00
 0.46576595122E+00 0.56019301699E+00 0.67979138918E+00 0.79074612463E+00 0.88001714281E+00
 0.96137197314E+00 0.10296347708E+01 0.10592934999E+01 0.10498107229E+01 0.10233074609E+01
 0.97763828808E+00 0.89152586255E+00 0.77536041170E+00 0.66626523350E+00 0.57325151746E+00
 0.50765350967E+00 0.41473952796E+00 0.33869277938E+00 0.29767539673E+00 0.27628934837E+00
 0.25799288747E+00 0.25873120997E+00 0.29588786919E+00 0.35439692221E+00 0.41615830410E+00
 0.49287881354E+00 0.59717913739E+00 0.71016481096E+00 0.80872581575E+00 0.89579205010E+00
 0.97412761852E+00 0.10216469629E+01 0.10236791641E+01 0.99904936439E+00 0.96424548477E+00
 0.90362207054E+00 0.80544782478E+00 0.69459421666E+00 0.59765302794E+00 0.52241635804E+00
 0.43639377186E+00 0.35640353028E+00 0.30182869361E+00 0.27418236261E+00 0.25650646212E+00
 0.24745657475E+00 0.26372153869E+00 0.30740541146E+00 0.36312077990E+00 0.42820653732E+00
 0.51377648100E+00 0.61515055013E+00 0.71254670737E+00 0.80041931484E+00 0.88446629581E+00
 0.95175123323E+00 0.97790463307E+00 0.96359371120E+00 0.93067701399E+00 0.88343134428E+00
 0.80784256270E+00 0.70839636108E+00 0.61002834909E+00 0.52522072880E+00 0.44511885653E+00
 0.36972191150E+00 0.30890869684E+00 0.27134512568E+00 0.25108705910E+00 0.24061033368E+00
 0.24516175446E+00 0.27133710622E+00 0.31429677613E+00 0.36878241814E+00 0.43905413038E+00
 0.52521739665E+00 0.61381258331E+00 0.69449221929E+00 0.77102196504E+00 0.84283161018E+00
 0.89187726136E+00 0.90293160164E+00 0.88242581136E+00 0.84282880452E+00 0.78347469451E+00
 0.70220403363E+00 0.61128370093E+00 0.51835809711E+00 0.44267012842E+00 0.37363137218E+00
 0.31510830498E+00 0.27163575185E+00 0.24417367558E+00 0.23070159852E+00 0.23095446417E+00
 0.24610635593E+00 0.27510425703E+00 0.31664154857E+00 0.37285920111E+00 0.44447531624E+00
 0.52363037314E+00 0.59872650078E+00 0.66548837912E+00 0.72580891787E+00 0.77627457692E+00
 0.80618473459E+00 0.80814200863E+00 0.78366236725E+00 0.73747804892E+00 0.67341554386E+00
 0.59746468675E+00 0.50071905241E+00 0.43250094748E+00 0.36874983225E+00 0.31585878635E+00
 0.27422490224E+00 0.24224174386E+00 0.22215232239E+00 0.21715385101E+00 0.22583260653E+00
 0.24454945291E+00 0.27332245916E+00 0.31509416963E+00 0.37057725139E+00 0.43651307813E+00
 0.50675659555E+00 0.57294864508E+00 0.62741402953E+00 0.66793024515E+00 0.69641167368E+00
 0.71115012195E+00 0.70512287018E+00 0.67479122740E+00 0.62572902210E+00 0.56628034846E+00
 0.47170371469E+00 0.41604182538E+00 0.35899293509E+00 0.31081069673E+00 0.27469526111E+00
 0.24531234324E+00 0.22177966710E+00 0.21024230718E+00 0.21242401613E+00 0.22331991003E+00
 0.24142668975E+00 0.27043410543E+00 0.31045097869E+00 0.35793705213E+00 0.41303557804E+00
 0.47539883941E+00 0.53437942653E+00 0.57614054906E+00 0.59966833907E+00 0.61329756764E+00
 0.61698442075E+00 0.60190964874E+00 0.56702166475E+00 0.52171784672E+00 0.43397864227E+00
 0.39300377573E+00 0.34659861475E+00 0.30327687512E+00 0.27135620463E+00 0.24764858005E+00
 0.22683210032E+00 0.21266527071E+00 0.20985461417E+00 0.21476373862E+00 0.22403779769E+00
 0.24219124965E+00 0.27133708599E+00 0.30456136769E+00 0.33872435043E+00 0.38130285440E+00
 0.43397865606E+00 0.48200142786E+00 0.51145597782E+00 0.52539144856E+00 0.53155195449E+00
 0.52647568055E+00 0.50442843402E+00 0.47085216369E+00 0.39230976930E+00 0.36419115126E+00
 0.33110805062E+00 0.29589293757E+00 0.26752441839E+00 0.24791472431E+00 0.23173209764E+00
 0.21894065197E+00 0.21452503614E+00 0.21696777661E+00 0.22075656865E+00 0.22889914387E+00
 0.24852759807E+00 0.27563074573E+00 0.29949056671E+00 0.32113840024E+00 0.35121886673E+00
 0.38947636593E+00 0.42237199644E+00 0.44195416823E+00 0.45178487264E+00 0.45332596485E+00
 0.44204996976E+00 0.41906778051E+00 0.35155130741E+00 0.33308081654E+00 0.31249434346E+00
 0.28855730983E+00 0.26657773134E+00 0.25085840308E+00 0.23871902237E+00 0.22812938316E+00
 0.22305515902E+00 0.22490241913E+00 0.22772406438E+00 0.22915422191E+00 0.23683341501E+00
 0.25576310179E+00 0.27818073063E+00 0.29493315698E+00 0.30874741216E+00 0.32696998686E+00
 0.34842386565E+00 0.36654108265E+00 0.37896120336E+00 0.38548882917E+00 0.38284573354E+00
 0.36973527723E+00 0.31541148806E+00 0.30425463956E+00 0.29316634109E+00 0.28049745488E+00
 0.26788638278E+00 0.25875151551E+00 0.25236034596E+00 0.24581395043E+00 0.24068414969E+00
 0.24068763444E+00 0.24374367480E+00 0.24412821851E+00 0.24261655272E+00 0.24669802432E+00
 0.25949485410E+00 0.27539468562E+00 0.28823011277E+00 0.29765227989E+00 0.30590676280E+00
 0.31386438034E+00 0.32165916926E+00 0.32846241359E+00 0.33084617306E+00 0.32580081002E+00
 0.28556497428E+00 0.28047993757E+00 0.27625897126E+00 0.27257637690E+00 0.26948488520E+00
 0.26866635728E+00 0.27035466941E+00 0.27184909313E+00 0.27135619187E+00 0.27085052660E+00
 0.27243008853E+00 0.27390508470E+00 0.27134509272E+00 0.26515386249E+00 0.26061677230E+00
 0.26226297989E+00 0.26949939995E+00 0.27783169542E+00 0.28313675609E+00 0.28482645931E+00
 0.28556208398E+00 0.28768094293E+00 0.29004859266E+00 0.28957516202E+00 0.26204396354E+00
 0.26193708429E+00 0.26321638467E+00 0.26658853788E+00 0.27182566131E+00 0.27902424457E+00
 0.28858604960E+00 0.29946690608E+00 0.30871059892E+00 0.31396218015E+00 0.31588752709E+00
 0.31662695201E+00 0.31584849943E+00 0.31016391654E+00 0.29770411932E+00 0.28218210777E+00
 0.27051215191E+00 0.26622886169E+00 0.26661282645E+00 0.26669887714E+00 0.26470985784E+00
 0.26250686662E+00 0.26183890708E+00 0.26211001241E+00 0.24499231454E+00 0.24816883583E+00
 0.25386624886E+00 0.26318764460E+00 0.27618201548E+00 0.29166438446E+00 0.30879434700E+00
 0.32750533543E+00 0.34652165474E+00 0.36211567149E+00 0.37062157544E+00 0.37208399332E+00
 0.36964497443E+00 0.36471004368E+00 0.35444230370E+00 0.33568604524E+00 0.31059501121E+00
 0.28642074294E+00 0.26934331344E+00 0.25972725406E+00 0.25385256032E+00 0.24892818530E+00
 0.24518242491E+00 0.24384060771E+00 0.23511830074E+00 0.23945018125E+00 0.24789820519E+00
 0.26163771509E+00 0.28147253805E+00 0.30602720652E+00 0.33281017136E+00 0.36031779666E+00
 0.38781191867E+00 0.41318968113E+00 0.43223028735E+00 0.44085208797E+00 0.43842092242E+00
 0.42835789962E+00 0.41446890581E+00 0.39662438466E+00 0.37160654072E+00 0.33908112501E+00
 0.30502833086E+00 0.27734784806E+00 0.25898188856E+00 0.24730032980E+00 0.23934674435E+00
 0.23500849832E+00 0.30556149795E+00 0.31128847675E+00 0.32753010568E+00 0.35530688961E+00
 0.39610655879E+00 0.44908513699E+00 0.51057415632E+00 0.57572111293E+00 0.63951950991E+00
 0.69711847068E+00 0.74402151841E+00 0.77529627862E+00 0.78526901410E+00 0.77099216342E+00
 0.73662718826E+00 0.69103064878E+00 0.63950201937E+00 0.58112361766E+00 0.51597125194E+00
 0.45110391502E+00 0.39610826373E+00 0.35527871016E+00 0.32737487482E+00 0.31082053867E+00
 0.31112756998E+00 0.31142935625E+00 0.32641301377E+00 0.35625238184E+00 0.40168301446E+00
 0.46241578557E+00 0.53627225953E+00 0.61906658101E+00 0.70406211422E+00 0.78280154390E+00
 0.84850288762E+00 0.89759375837E+00 0.92616544887E+00 0.92750645730E+00 0.89740619064E+00
 0.84110953169E+00 0.77072838482E+00 0.69545362462E+00 0.61779924441E+00 0.53936524179E+00
 0.46569634793E+00 0.40362112579E+00 0.35686718276E+00 0.32610827088E+00 0.32760321341E+00
 0.31792478318E+00 0.32733002046E+00 0.35652184416E+00 0.40478725557E+00 0.47029339594E+00
 0.55168725504E+00 0.64705292005E+00 0.75065368309E+00 0.85232954414E+00 0.94144083624E+00
 0.10110762073E+01 0.10577715732E+01 0.10778300220E+01 0.10658652066E+01 0.10186852093E+01
 0.94074720136E+00 0.84434457348E+00 0.74307485278E+00 0.64522502535E+00 0.55389665234E+00
 0.47202592068E+00 0.40469136902E+00 0.35623967358E+00 0.35621581511E+00 0.33300671320E+00
 0.33128589590E+00 0.35479631353E+00 0.40366903868E+00 0.47279242768E+00 0.55902824525E+00
 0.66267178668E+00 0.77999293245E+00 0.90049661145E+00 0.10126756384E+01 0.11072581287E+01
 0.11755647891E+01 0.12112951144E+01 0.12138226352E+01 0.11841478879E+01 0.11197477898E+01
 0.10209107990E+01 0.90028045155E+00 0.77728508915E+00 0.66332066117E+00 0.55997533068E+00
 0.47015427435E+00 0.40112196450E+00 0.39610824931E+00 0.35832091893E+00 0.34168899404E+00
 0.35224737454E+00 0.39610515452E+00 0.46678748723E+00 0.55575566322E+00 0.66427265633E+00
 0.79272974333E+00 0.92914813327E+00 0.10593504224E+01 0.11770128835E+01 0.12737175990E+01
 0.13330938598E+01 0.13469827131E+01 0.13244922205E+01 0.12737104285E+01 0.11887626303E+01
 0.10676211750E+01 0.92825676987E+00 0.79272933675E+00 0.66768812289E+00 0.55366832745E+00
 0.46008474951E+00 0.44460557645E+00 0.39149101664E+00 0.36078862905E+00 0.35336666768E+00
 0.38352525355E+00 0.45077984499E+00 0.53968120666E+00 0.64711938322E+00 0.78109502110E+00
 0.93303462514E+00 0.10800369579E+01 0.12132418649E+01 0.13347916368E+01 0.14292704062E+01
 0.14703445212E+01 0.14561549247E+01 0.14076538642E+01 0.13321658983E+01 0.12198144439E+01
 0.10762838903E+01 0.92706300021E+00 0.78658959677E+00 0.65265790610E+00 0.53255989831E+00
 0.50126383558E+00 0.42837739179E+00 0.38630542182E+00 0.36239364536E+00 0.37163914754E+00
 0.42744668083E+00 0.51398932834E+00 0.61559082785E+00 0.74318928103E+00 0.90286038566E+00
 0.10685607745E+01 0.12152739665E+01 0.13484601963E+01 0.14711491974E+01 0.15538129574E+01
 0.15695587189E+01 0.15307753159E+01 0.14603710411E+01 0.13558066648E+01 0.12123815894E+01
 0.10529137499E+01 0.90215208224E+00 0.75801061274E+00 0.61717175864E+00 0.56747403308E+00
 0.46830242672E+00 0.41303381263E+00 0.37843570208E+00 0.36612081695E+00 0.40112030295E+00
 0.48116965510E+00 0.57875630650E+00 0.69226211923E+00 0.84270491505E+00 0.10199672469E+01
 0.11847899289E+01 0.13247292048E+01 0.14559827022E+01 0.15691459081E+01 0.16265158393E+01
 0.16168022997E+01 0.15627377987E+01 0.14730861110E+01 0.13374481222E+01 0.11698084876E+01
 0.10063240874E+01 0.85705962659E+00 0.70754118968E+00 0.63950202699E+00 0.51376001499E+00
 0.43822279648E+00 0.39563555275E+00 0.36818173863E+00 0.37678354150E+00 0.44015737569E+00
 0.53541008401E+00 0.63950384879E+00 0.76940206107E+00 0.93970238490E+00 0.11196519764E+01
 0.12737223266E+01 0.14069644079E+01 0.15298053758E+01 0.16163830728E+01 0.16393169331E+01
 0.16099072869E+01 0.15454827348E+01 0.14346968150E+01 0.12737104617E+01 0.10982660990E+01
 0.94051887105E+00 0.79096596215E+00 0.70552115843E+00 0.56389715927E+00 0.46391260824E+00
 0.40917231693E+00 0.37411119399E+00 0.36012804421E+00 0.39557177479E+00 0.47935231523E+00
 0.58018589019E+00 0.69314293561E+00 0.84142591142E+00 0.10195375025E+01 0.11888356910E+01
 0.13320580976E+01 0.14598575027E+01 0.15627364747E+01 0.16103289769E+01 0.16002448022E+01
 0.15560027452E+01 0.14771437657E+01 0.13442873107E+01 0.11724635900E+01 0.10051292665E+01
 0.85529302594E+00 0.75328620646E+00 0.61083039373E+00 0.49256012225E+00 0.41996407006E+00
 0.37878533424E+00 0.35300846337E+00 0.36015077231E+00 0.41809346738E+00 0.50925673462E+00
 0.61231794428E+00 0.73755832586E+00 0.89626637932E+00 0.10659898608E+01 0.12191850193E+01
 0.13553201767E+01 0.14734134895E+01 0.15464643949E+01 0.15564308538E+01 0.15224465487E+01
 0.14629116827E+01 0.13636417327E+01 0.12156942906E+01 0.10494345646E+01 0.89677871991E+00
 0.77889198273E+00 0.64433488746E+00 0.52117242898E+00 0.43196962922E+00 0.38030197685E+00
 0.34986529152E+00 0.34026115851E+00 0.36922762418E+00 0.43795627541E+00 0.52835277641E+00
 0.63563609217E+00 0.76969172437E+00 0.92347429078E+00 0.10733939219E+01 0.12103507009E+01
 0.13367797745E+01 0.14354088286E+01 0.14775320988E+01 0.14623148976E+01 0.14130032735E+01
 0.13356891291E+01 0.12182578041E+01 0.10689957092E+01 0.91804466491E+00 0.78526905590E+00
 0.65914333836E+00 0.54179355758E+00 0.44553274174E+00 0.38129076123E+00 0.34434398087E+00
 0.32790212898E+00 0.33802551924E+00 0.38128309710E+00 0.45128804419E+00 0.54081407065E+00
 0.65269739176E+00 0.78527128528E+00 0.92206468387E+00 0.10493308420E+01 0.11678550126E+01
 0.12737223670E+01 0.13448690103E+01 0.13631676219E+01 0.13347998174E+01 0.12737176725E+01
 0.11811179144E+01 0.10575432472E+01 0.91936825275E+00 0.77456461740E+00 0.65655496956E+00
 0.54822013824E+00 0.45547007694E+00 0.38464701651E+00 0.33808704169E+00 0.31471238449E+00
 0.31492696069E+00 0.34005162645E+00 0.38830654840E+00 0.45711317830E+00 0.54738770825E+00
 0.65845590299E+00 0.78019228611E+00 0.89793259477E+00 0.10043152990E+01 0.10983757157E+01
 0.11737411372E+01 0.12169402036E+01 0.12190085073E+01 0.11815858066E+01 0.11107960689E+01
 0.10127424675E+01 0.89655504853E+00 0.74588585940E+00 0.64021144332E+00 0.54078518578E+00
 0.45626516215E+00 0.38850605459E+00 0.33687365120E+00 0.30453024899E+00 0.29543400423E+00
 0.30836808078E+00 0.33929132332E+00 0.38757161125E+00 0.45544694729E+00 0.54267841441E+00
 0.64447045052E+00 0.75235302450E+00 0.85498188089E+00 0.94156672865E+00 0.10072522362E+01
 0.10519890708E+01 0.10726041063E+01 0.10612147645E+01 0.10145473296E+01 0.93980489076E+00
 0.84787539934E+00 0.69946466570E+00 0.61218872762E+00 0.52395423418E+00 0.44757192339E+00
 0.38785222356E+00 0.34007381104E+00 0.30381798655E+00 0.28585340494E+00 0.28815821750E+00
 0.30546471053E+00 0.33601060024E+00 0.38335958482E+00 0.44714402924E+00 0.52279919103E+00
 0.60903725830E+00 0.70341820526E+00 0.79229285401E+00 0.85870072244E+00 0.89957971751E+00
 0.92232108523E+00 0.92618977229E+00 0.90190570671E+00 0.84904885827E+00 0.77889334433E+00
 0.63951952766E+00 0.57326721071E+00 0.50096646217E+00 0.43356271585E+00 0.38129814957E+00
 0.34168494304E+00 0.30942434917E+00 0.28841169316E+00 0.28344106171E+00 0.29062226249E+00
 0.30650376142E+00 0.33597308981E+00 0.38128307687E+00 0.43486669653E+00 0.49259773570E+00
 0.56088517887E+00 0.63950385896E+00 0.71072194202E+00 0.75789671729E+00 0.78278316176E+00
 0.79272978128E+00 0.78386607119E+00 0.75042536725E+00 0.69894488364E+00 0.57287063703E+00
 0.52575117672E+00 0.47256978859E+00 0.41810990221E+00 0.37327782925E+00 0.34096487293E+00
 0.31577427256E+00 0.29733964091E+00 0.29037142165E+00 0.29291915365E+00 0.29921904123E+00
 0.31280817310E+00 0.34166522092E+00 0.38184696811E+00 0.42187848427E+00 0.46201131724E+00
 0.51201500367E+00 0.56982628385E+00 0.61937585203E+00 0.65076721822E+00 0.66672675034E+00
 0.66832849120E+00 0.65083796874E+00 0.61590907212E+00 0.50661759546E+00 0.47494151801E+00
 0.44011464203E+00 0.40234333432E+00 0.36849410818E+00 0.34389943905E+00 0.32592149088E+00
 0.31198923872E+00 0.30546777392E+00 0.30709869850E+00 0.31035113544E+00 0.31304615581E+00
 0.32394557635E+00 0.34909550308E+00 0.38076635406E+00 0.40912774211E+00 0.43620081606E+00
 0.46845461997E+00 0.50323849392E+00 0.53224833833E+00 0.55179908994E+00 0.56089990531E+00
 0.55587217902E+00 0.53564476206E+00 0.44658807360E+00 0.42728977030E+00 0.40746910510E+00
 0.38656764320E+00 0.36728570245E+00 0.35380839336E+00 0.34546196668E+00 0.33874236444E+00
 0.33437764551E+00 0.33523055757E+00 0.33843616689E+00 0.33798331730E+00 0.33535671232E+00
 0.33946845145E+00 0.35457101475E+00 0.37524655122E+00 0.39483107758E+00 0.41227284952E+00
 0.42900924032E+00 0.44490953034E+00 0.45898585781E+00 0.46935825420E+00 0.47185593566E+00
 0.46335081576E+00 0.39610656005E+00 0.38710414495E+00 0.37904075613E+00 0.37249262365E+00
 0.36817005278E+00 0.36811518766E+00 0.37245068021E+00 0.37779589739E+00 0.38129813681E+00
 0.38383845508E+00 0.38664173036E+00 0.38704627546E+00 0.38129072828E+00 0.37073458516E+00
 0.36212633103E+00 0.36128827839E+00 0.36818173534E+00 0.37810282442E+00 0.38634657426E+00
 0.39169118208E+00 0.39610517019E+00 0.40106435488E+00 0.40455892675E+00 0.40304357308E+00
 0.35619707721E+00 0.35550585203E+00 0.35707636703E+00 0.36241481445E+00 0.37171522189E+00
 0.38504946027E+00 0.40238768621E+00 0.42185057796E+00 0.43926310995E+00 0.45089697885E+00
 0.45630951501E+00 0.45709196393E+00 0.45291310966E+00 0.44084828180E+00 0.42000840477E+00
 0.39557199474E+00 0.37598113893E+00 0.36576498726E+00 0.36243798500E+00 0.36075517422E+00
 0.35844212954E+00 0.35671232058E+00 0.35656620485E+00 0.35683554395E+00 0.32744242386E+00
 0.33235413083E+00 0.34162118426E+00 0.35703201484E+00 0.37895306517E+00 0.40590656373E+00
 0.43624574681E+00 0.46878475404E+00 0.50087876698E+00 0.52723493050E+00 0.54273717467E+00
 0.54655390731E+00 0.54170588532E+00 0.53000675991E+00 0.50930680889E+00 0.47746857502E+00
 0.43813511787E+00 0.40031876369E+00 0.37168569144E+00 0.35335575844E+00 0.34160129912E+00
 0.33315753912E+00 0.32764604598E+00 0.32578551293E+00 0.31064484529E+00 0.31777170977E+00
 0.33206322700E+00 0.35517059753E+00 0.38812809266E+00 0.42914319520E+00 0.47465059964E+00
 0.52167522956E+00 0.56781334442E+00 0.60919889663E+00 0.63992051000E+00 0.65459780385E+00
 0.65200950000E+00 0.63579147088E+00 0.61053949839E+00 0.57716222732E+00 0.53366098301E+00
 0.48130839799E+00 0.42808650552E+00 0.38376726367E+00 0.35237272145E+00 0.33142596371E+00
 0.31763387610E+00 0.31051094736E+00 0.40127999783E+00 0.41094311984E+00 0.43873792521E+00
 0.48526831203E+00 0.55133172422E+00 0.63493152732E+00 0.73076001219E+00 0.83190846774E+00
 0.93090240038E+00 0.10201021513E+01 0.10922044771E+01 0.11397926475E+01 0.11553498576E+01
 0.11351979428E+01 0.10842940043E+01 0.10135797400E+01 0.93088439792E+00 0.83769998133E+00
 0.73653956212E+00 0.63709311752E+00 0.55134953623E+00 0.48526166281E+00 0.43857804891E+00
 0.41043327379E+00 0.41076545885E+00 0.41107877617E+00 0.43638279748E+00 0.48620903947E+00
 0.56017478917E+00 0.65651415078E+00 0.77132855285E+00 0.89842054193E+00 0.10284682963E+01
 0.11497265645E+01 0.12517918481E+01 0.13276956147E+01 0.13706884016E+01 0.13721282292E+01
 0.13275015302E+01 0.12438887456E+01 0.11368411380E+01 0.10193213684E+01 0.89711809268E+00
 0.77463941257E+00 0.65998923587E+00 0.56222595622E+00 0.48687607664E+00 0.43607781813E+00
 0.43881321396E+00 0.42271280501E+00 0.43852996803E+00 0.48650143741E+00 0.56452976570E+00
 0.66889766770E+00 0.79635906079E+00 0.94313069209E+00 0.11011212767E+01 0.12568173205E+01
 0.13952730524E+01 0.15049026509E+01 0.15779377052E+01 0.16074453325E+01 0.15865748375E+01
 0.15130278610E+01 0.13945552528E+01 0.12483330418E+01 0.10930524399E+01 0.94115379955E+00
 0.79866581219E+00 0.67071433156E+00 0.56442267016E+00 0.48619811541E+00 0.48624486384E+00
 0.44818087288E+00 0.44635344726E+00 0.48474125276E+00 0.56226772881E+00 0.67152851369E+00
 0.80712288917E+00 0.96758822406E+00 0.11472307703E+01 0.13324972249E+01 0.15074540415E+01
 0.16572079291E+01 0.17668975024E+01 0.18248802331E+01 0.18275879949E+01 0.17760785900E+01
 0.16705518432E+01 0.15162426351E+01 0.13322480470E+01 0.11443044338E+01 0.96824242934E+00
 0.80811799066E+00 0.66872098335E+00 0.55955464099E+00 0.55134952181E+00 0.48907981532E+00
 0.46376851810E+00 0.48260555366E+00 0.55134066530E+00 0.66113809515E+00 0.80061748230E+00
 0.96922475234E+00 0.11658800765E+01 0.13759433682E+01 0.15810091224E+01 0.17690780610E+01
 0.19243901662E+01 0.20225584562E+01 0.20496451414E+01 0.20133977005E+01 0.19243849213E+01
 0.17815847363E+01 0.15897909776E+01 0.13749684536E+01 0.11658880172E+01 0.97290207702E+00
 0.79843066085E+00 0.65401420164E+00 0.63017663002E+00 0.54249373619E+00 0.49346402062E+00
 0.48556492072E+00 0.53402466970E+00 0.63675900864E+00 0.77494715829E+00 0.94312666033E+00
 0.11483330032E+01 0.13800464661E+01 0.16113209222E+01 0.18278849661E+01 0.20247489705E+01
 0.21769336578E+01 0.22487014521E+01 0.22335487899E+01 0.21538389315E+01 0.20219193193E+01
 0.18348900199E+01 0.16073283406E+01 0.13736948170E+01 0.11542243980E+01 0.94908043503E+00
 0.76739076641E+00 0.72085703742E+00 0.60326397421E+00 0.53302935500E+00 0.49879110971E+00
 0.51739862859E+00 0.60229268291E+00 0.73445913979E+00 0.89478436977E+00 0.10931751665E+01
 0.13349800618E+01 0.15907637955E+01 0.18300247534E+01 0.20516991620E+01 0.22497293768E+01
 0.23830486038E+01 0.24157835066E+01 0.23584775491E+01 0.22382320787E+01 0.20595398423E+01
 0.18269634106E+01 0.15741084441E+01 0.13342413795E+01 0.11089701346E+01 0.89644015487E+00
 0.82313361302E+00 0.66946390612E+00 0.57643106369E+00 0.52164733372E+00 0.50848897088E+00
 0.56368831959E+00 0.68320150456E+00 0.83524117934E+00 0.10159773390E+01 0.12465951893E+01
 0.15152217346E+01 0.17773496738E+01 0.20139979875E+01 0.22335267885E+01 0.24153919271E+01
 0.25099758995E+01 0.24996520790E+01 0.24086193874E+01 0.22517883266E+01 0.20275489665E+01
 0.17613755277E+01 0.15006930436E+01 0.12618892728E+01 0.10321996593E+01 0.93088440554E+00
 0.74210183822E+00 0.61972791017E+00 0.54770250291E+00 0.50924565328E+00 0.52757975967E+00
 0.62175457978E+00 0.76515674196E+00 0.93088468177E+00 0.11354562375E+01 0.13934753916E+01
 0.16704667205E+01 0.19243978772E+01 0.21530998817E+01 0.23574421053E+01 0.24992051336E+01
 0.25411425836E+01 0.24923025241E+01 0.23741600764E+01 0.21826713571E+01 0.19243849545E+01
 0.16476527306E+01 0.13943200960E+01 0.11584248874E+01 0.10290422579E+01 0.81832104177E+00
 0.66372910366E+00 0.57118167877E+00 0.51588945169E+00 0.50100135838E+00 0.55670042105E+00
 0.68014753835E+00 0.83559862461E+00 0.10157880705E+01 0.12442453064E+01 0.15139679865E+01
 0.17810719823E+01 0.20214457667E+01 0.22375175984E+01 0.24085689963E+01 0.24927517201E+01
 0.24819672820E+01 0.24013311305E+01 0.22559277880E+01 0.20345030810E+01 0.17636195916E+01
 0.14985755158E+01 0.12590190943E+01 0.11020598464E+01 0.88771720754E+00 0.70952983503E+00
 0.59211924939E+00 0.52271008626E+00 0.48643743305E+00 0.50286743338E+00 0.59015638260E+00
 0.72734112360E+00 0.88927883295E+00 0.10852534646E+01 0.13262581873E+01 0.15867003304E+01
 0.18333131489E+01 0.20585404289E+01 0.22519699876E+01 0.23752079484E+01 0.24018356949E+01
 0.23496002628E+01 0.22407748589E+01 0.20674109849E+01 0.18295813522E+01 0.15690441980E+01
 0.13268236074E+01 0.11436171469E+01 0.93758084613E+00 0.75240721613E+00 0.61358167195E+00
 0.52711274019E+00 0.47811172211E+00 0.46786846132E+00 0.51532470779E+00 0.62003296161E+00
 0.76013442667E+00 0.92832223337E+00 0.11337834762E+01 0.13678005318E+01 0.16027180425E+01
 0.18238838398E+01 0.20264688553E+01 0.21834350130E+01 0.22565123536E+01 0.22403000863E+01
 0.21595777798E+01 0.20253348282E+01 0.18323162116E+01 0.15980160291E+01 0.13620209942E+01
 0.11553498994E+01 0.96087340912E+00 0.78249879621E+00 0.63470302254E+00 0.53108289706E+00
 0.46909110073E+00 0.44370353054E+00 0.46231968816E+00 0.53107599765E+00 0.64088664744E+00
 0.78148452188E+00 0.95399657617E+00 0.11553592034E+01 0.13663163674E+01 0.15689344876E+01
 0.17586744683E+01 0.19243979176E+01 0.20354994040E+01 0.20673816960E+01 0.20247304727E+01
 0.19243902397E+01 0.17728493589E+01 0.15777025527E+01 0.13634212244E+01 0.11389940490E+01
 0.95813873808E+00 0.79219118279E+00 0.64891150390E+00 0.53681829263E+00 0.46069084579E+00
 0.42171229700E+00 0.42188074638E+00 0.46269138840E+00 0.54070034080E+00 0.65067583378E+00
 0.79127190069E+00 0.96013297754E+00 0.11450215716E+01 0.13280669458E+01 0.14977068376E+01
 0.16477521968E+01 0.17656022472E+01 0.18318335334E+01 0.18340028202E+01 0.17739223290E+01
 0.16610101142E+01 0.15067114541E+01 0.13265648139E+01 0.10941307583E+01 0.93320925223E+00
 0.78145859262E+00 0.64975630444E+00 0.54169293501E+00 0.45859905220E+00 0.40602750471E+00
 0.39000296858E+00 0.41002653530E+00 0.46113361588E+00 0.54072442248E+00 0.64886705977E+00
 0.78341080584E+00 0.93775158234E+00 0.11010930470E+01 0.12586976783E+01 0.13954016756E+01
 0.15016655460E+01 0.15731550433E+01 0.16033943159E+01 0.15829354047E+01 0.15094474346E+01
 0.13935819932E+01 0.12511139078E+01 0.10225379707E+01 0.88912184900E+00 0.75541343884E+00
 0.63689617954E+00 0.54018753787E+00 0.46194181275E+00 0.40358298280E+00 0.37401779873E+00
 0.37644904588E+00 0.40533616847E+00 0.45768766264E+00 0.53544560406E+00 0.63638742951E+00
 0.75415108081E+00 0.88583291681E+00 0.10267945124E+01 0.11598079805E+01 0.12635974048E+01
 0.13315341635E+01 0.13686739413E+01 0.13727363495E+01 0.13339498484E+01 0.12533714044E+01
 0.11456026827E+01 0.93090241812E+00 0.82822588346E+00 0.71850467684E+00 0.61534429293E+00
 0.53108077050E+00 0.46442172612E+00 0.41114871833E+00 0.37672090832E+00 0.36724614304E+00
 0.37904911912E+00 0.40810027576E+00 0.45845413635E+00 0.53107597743E+00 0.61664965052E+00
 0.70957530073E+00 0.81510025250E+00 0.93088469194E+00 0.10355795982E+01 0.11088577111E+01
 0.11502136401E+01 0.11658801144E+01 0.11512834656E+01 0.11008861344E+01 0.10231002594E+01
 0.82893737644E+00 0.75484398962E+00 0.67293362437E+00 0.59020549695E+00 0.51966801522E+00
 0.46547500815E+00 0.42280632713E+00 0.39203497823E+00 0.37878567403E+00 0.38144499879E+00
 0.39398422678E+00 0.41970828060E+00 0.46628360178E+00 0.52873526354E+00 0.59413762068E+00
 0.66171391679E+00 0.74026972046E+00 0.82566619995E+00 0.89876561515E+00 0.94707202886E+00
 0.97189651301E+00 0.97356285166E+00 0.94711196198E+00 0.89511726390E+00 0.72660865666E+00
 0.67656629493E+00 0.62170219854E+00 0.56390678214E+00 0.51176464912E+00 0.47177859011E+00
 0.44163472478E+00 0.41882507210E+00 0.40699734841E+00 0.40702892491E+00 0.41210512602E+00
 0.41990352531E+00 0.43955218324E+00 0.47729779652E+00 0.52478463376E+00 0.57115279074E+00
 0.61760322548E+00 0.66964529149E+00 0.72292799171E+00 0.76702053523E+00 0.79646611434E+00
 0.80911625111E+00 0.80074560590E+00 0.77065060334E+00 0.63229189475E+00 0.60214158987E+00
 0.57046936319E+00 0.53800028532E+00 0.50860275768E+00 0.48726372736E+00 0.47340808111E+00
 0.46312324185E+00 0.45674620681E+00 0.45686636574E+00 0.46022853126E+00 0.46051154177E+00
 0.45951643567E+00 0.46705292804E+00 0.48806694780E+00 0.51708323113E+00 0.54685605233E+00
 0.57561508071E+00 0.60392220578E+00 0.63046190264E+00 0.65285561451E+00 0.66790567496E+00