    3    3    1    1
  0.4959336E+02  0.3190316E-09  0.3190316E-09  0.1687900E-08  0.5000000E-15
  1.000000000000000E-004
  CAR 
 unknown system                          
     18     10     14
 
  0.0000000E+00  0.0000000E+00  0.0000000E+00  0.1562500E-01
    1      -15.988306   1.000000
    2      -14.779944   1.000000
    3       -7.497768   1.000000
    4       -4.536397   1.000000
    5       -4.536131   1.000000
    6       -3.675029   1.000000
    7       -3.428842   1.000000
    8       -3.428375   1.000000
    9       -1.954215   1.000000
   10        0.820104   0.000000
   11        0.820884   0.000000
   12        1.042622   0.000000
   13        1.043326   0.000000
   14        3.399261   0.000000
 
  0.1250000E+00  0.2081668E-16  0.0000000E+00  0.9375000E-01
    1      -15.774208   1.000000
    2      -14.677407   1.000000
    3       -7.252509   1.000000
    4       -5.000466   1.000000
    5       -4.483333   1.000000
    6       -4.302245   1.000000
    7       -3.765235   1.000000
    8       -2.997141   1.000000
    9       -2.092439   1.000000
   10        0.537366   0.000000
   11        0.604195   0.000000
   12        0.805308   0.000000
   13        1.174400   0.000000
   14        3.760724   0.000000
 
  0.2500000E+00  0.4163336E-16  0.0000000E+00  0.9375000E-01
    1      -15.205677   1.000000
    2      -14.408563   1.000000
    3       -6.886973   1.000000
    4       -5.728875   1.000000
    5       -5.464939   1.000000
    6       -4.401703   1.000000
    7       -3.715824   1.000000
    8       -3.249688   1.000000
    9       -2.661008   1.000000
   10        0.213179   0.000000
   11        0.388889   0.000000
   12        0.931524   0.000000
   13        1.789236   0.000000
   14        4.590208   0.000000
 
  0.3750000E+00  0.5551115E-16  0.0000000E+00  0.9375000E-01
    1      -14.530722   1.000000
    2      -14.099983   1.000000
    3       -7.326512   1.000000
    4       -6.334069   1.000000
    5       -5.859589   1.000000
    6       -4.900204   1.000000
    7       -3.658750   1.000000
    8       -3.126267   1.000000
    9       -2.855070   1.000000
   10        0.206068   0.000000
   11        0.485855   0.000000
   12        1.650435   0.000000
   13        2.181836   0.000000
   14        5.203469   0.000000
 
  0.5000000E+00  0.8326673E-16  0.0000000E+00  0.4687500E-01
    1      -14.202527   1.000000
    2      -13.956668   1.000000
    3       -7.659816   1.000000
    4       -6.700179   1.000000
    5       -5.985439   1.000000
    6       -5.081365   1.000000
    7       -3.797182   1.000000
    8       -2.899499   1.000000
    9       -2.573937   1.000000
   10        0.227607   0.000000
   11        0.742252   0.000000
   12        1.949823   0.000000
   13        2.297788   0.000000
   14        4.251420   0.000000
 
  0.1250000E+00  0.1250000E+00  0.0000000E+00  0.9375000E-01
    1      -15.381531   1.000000
    2      -14.490345   1.000000
    3       -6.905471   1.000000
    4       -5.565767   1.000000
    5       -5.045788   1.000000
    6       -4.579508   1.000000
    7       -3.963255   1.000000
    8       -2.862569   1.000000
    9       -2.465275   1.000000
   10        0.138550   0.000000
   11        0.515921   0.000000
   12        0.528034   0.000000
   13        1.768804   0.000000
   14        4.353738   0.000000
 
  0.2500000E+00  0.1250000E+00  0.0000000E+00  0.1875000E+00
    1      -14.748149   1.000000
    2      -14.191719   1.000000
    3       -6.969729   1.000000
    4       -5.992178   1.000000
    5       -5.728899   1.000000
    6       -5.084701   1.000000
    7       -3.864108   1.000000
    8       -3.225520   1.000000
    9       -2.749143   1.000000
   10        0.054630   0.000000
   11        0.501420   0.000000
   12        0.998438   0.000000
   13        2.273905   0.000000
   14        5.357132   0.000000
 
  0.3750000E+00  0.1250000E+00  0.0000000E+00  0.1875000E+00
    1      -14.217752   1.000000
    2      -13.947801   1.000000
    3       -7.371932   1.000000
    4       -6.756048   1.000000
    5       -5.857853   1.000000
    6       -5.102645   1.000000
    7       -3.849213   1.000000
    8       -3.706893   1.000000
    9       -2.422466   1.000000
   10        0.246614   0.000000
   11        0.756768   0.000000
   12        1.621926   0.000000
   13        2.307961   0.000000
   14        4.777093   0.000000
 
  0.2500000E+00  0.2500000E+00  0.0000000E+00  0.9375000E-01
    1      -14.232813   1.000000
    2      -13.938914   1.000000
    3       -7.011556   1.000000
    4       -6.806174   1.000000
    5       -5.531864   1.000000
    6       -5.151333   1.000000
    7       -4.831744   1.000000
    8       -3.574609   1.000000
    9       -2.452276   1.000000
   10        0.195715   0.000000
   11        0.807297   0.000000
   12        1.122966   0.000000
   13        2.591793   0.000000
   14        5.606136   0.000000
 
  0.3750000E+00  0.2500000E+00  0.0000000E+00  0.9375000E-01
    1      -13.997794   1.000000
    2      -13.819794   1.000000
    3       -7.190316   1.000000
    4       -6.841770   1.000000
    5       -5.814676   1.000000
    6       -5.152583   1.000000
    7       -4.924460   1.000000
    8       -3.959018   1.000000
    9       -2.084793   1.000000
   10       -0.130488   0.000000
   11        1.185188   0.000000
   12        1.357091   0.000000
   13        2.735664   0.000000
   14        5.022498   0.000000
