unknown system                          
   1.00000000000000     
     3.190316    0.000000    0.000000
    -1.595158    2.762894    0.000000
     0.000000    0.000000   16.879004
   Mo   S 
     1     2
Direct
  0.333333  0.666667  0.220377
  0.666667  0.333333  0.127666
  0.666666  0.333333  0.313089
 
   12   12   70
 0.22167E-02 0.93302E-02 0.15208     0.63930E-03 0.44843     0.20396E-01 0.49134E-02 0.32467E-02 0.87239E-02 0.44423E-03
 0.26818E-01 0.58396E-02 0.32410E-02 0.15791E-02 0.15400E-02 0.32858E-02 0.17250E-01 0.84682E-02 0.78484E-01 0.44048E-02
 0.27752     0.36503E-02 0.22892E-02 0.32987E-02 0.70985E-03 0.41189E-02 0.23081E-02 0.18558E-02 0.22474E-01 0.15919E-01
 0.90689E-02 0.13007E-01 0.18196E-01 0.10700E-01 0.44542E-01 0.12466E-01 0.13500E-02 0.16894E-03 0.13551E-02 0.35006E-02
 0.49587E-02 0.22415E-02 0.10714E-01 0.39737E-02 0.46564E-01 0.16533     0.44946E-01 0.14742E-02 0.30455E-01 0.57990E-02
 0.25922E-02 0.63857E-03 0.27223E-01 0.17193E-01 0.17392E-01 0.56387E-01 0.23952     0.94232E-02 0.92302E-01 0.30449E-01
 0.13487E-02 0.12653E-02 0.10664E-03 0.11921E-03 0.36470E-03 0.21695E-01 0.13330E-01 0.15230     0.10219E-01 0.85428E-02
 0.52326E-02 0.10887E-01 0.48976E-01 0.22312E-02 0.12874E-02 0.72228E-04 0.19410E-02 0.11689E-01 0.45111E-01 0.88501E-01
 0.66806E-01 0.46109E-02 0.48317E-01 0.17309E-01 0.91674E-02 0.17794     0.42745E-03 0.25730E-03 0.56051E-03 0.10066E-02
 0.15677     0.23930E-02 0.12506E-01 0.61439E-02 0.11272E-01 0.93807     0.92405E-02 0.93172     0.19757E-01 0.17040E-03
 0.13528E-01 0.13836E-02 0.41180E-03 0.97950E-03 0.93359     0.17799E-02 0.98435     0.93841     0.14555E-01 0.66266E-03
 0.44644E-01 0.13279     0.71882E-02 0.88388E-04 0.34270E-03 0.87724E-04 0.98711E-02 0.83700E-02 0.37552     0.14627E-02
 0.16542E-02 0.36866     0.54877E-02 0.37317E-03 0.29771E-02 0.12495E-02 0.28007E-03 0.30026E-03 0.34202E-02 0.26509E-03
 0.14081E-01 0.60297     0.28427E-02 0.17993E-02 0.11919E-02 0.16830E-02 0.34982E-02 0.13208E-02 0.14556E-01 0.40088E-03
 0.70050E-01 0.54658E-03 0.62295E-03 0.22360E-02 0.35312E-02 0.74673E-02 0.22745E-01 0.38836E-02 0.16269     0.78868    
 0.29780E-01 0.61214E-01 0.26695E-01 0.27442E-02 0.11028     0.63081E-02 0.47068E-02 0.31865E-02 0.54250E-02 0.92066E-01
 0.63426E-01 0.57457E-01 0.91836     0.36806E-01 0.78672     0.68472E-01 0.11176E-01 0.84552E-02 0.25534E-02 0.17555    
 0.57766E-02 0.10089E-01 0.78271E-01 0.28647     0.89010E-01 0.14673     0.14427     0.76445E-01 0.11235     0.71887    
 0.25404E-01 0.72230E-03 0.86262E-01 0.11863E-01 0.10612     0.21383E-01 0.12503     0.55693E-01 0.31006     0.67009    
 0.67716     0.11118E-01 0.93776     0.70799E-02 0.59670E-01 0.27977E-02 0.50066E-01 0.42615     0.14151     0.34722    
 0.97856     0.12616     0.69963     0.10930     0.10183E-01 0.26167E-01 0.48376E-03 0.14264E-02 0.22278E-02 0.67367    
 0.87467E-01 0.65083     0.13598     0.86576E-01 0.59778E-01 0.18175     0.96716     0.10952E-01 0.10167     0.30649E-03
 0.57050     0.26301E-01 0.10804     0.92442     0.60809     0.53650E-01 0.50858     0.10994     0.44919E-01 0.72676E-01
 0.18947E-02 0.51695E-02 0.12335E-02 0.35047E-02 0.21490     0.15874E-01 0.66320E-01 0.97835E-01 0.82032E-01 0.55209    
 0.34502E-01 0.77910E-01 0.10445E-01 0.58187E-03 0.27145E-02 0.39291     0.15790E-02 0.18711E-01 0.22203     0.12952E-01
 0.30280     0.30963     0.86433     0.29102E-02 0.87646E-02 0.95546E-02 0.14598E-01 0.35409E-03 0.99414E-02 0.41481E-03
 0.70890E-01 0.60418     0.11047     0.84035E-02 0.48784E-02 0.18246E-01 0.46333E-02 0.13024E-02 0.57789E-02 0.57574E-01
 0.12689E-02 0.54259E-02 0.31290E-02 0.10076E-02 0.12964E-01 0.41123E-01 0.43972E-02 0.30539E-02 0.29266E-02 0.75165E-01
 0.11000E-01 0.76257E-02 0.91128     0.24450E-02 0.61446E-01 0.12021E-01 0.15969E-02 0.38302E-02 0.39811E-02 0.76455E-02
 0.24798E-01 0.16509E-01 0.20243     0.63289     0.12687     0.82637     0.75789E-01 0.12218E-01 0.42882E-01 0.71864E-02
 0.62334E-02 0.51526E-02 0.15094E-01 0.91232     0.17102     0.21721     0.76970     0.17556     0.61086     0.87510    
 0.41676E-01 0.19466E-01 0.76717E-02 0.16706E-01 0.12830E-01 0.40332E-01 0.21785     0.96934     0.32484     0.98734    
 0.37826     0.26680     0.25215     0.45169     0.93113     0.25745E-02 0.56476E-01 0.32195E-01 0.99230     0.12716    
 0.97067     0.27472     0.97750     0.64621     0.85921     0.57635E-01 0.38272     0.14498E-01 0.13378E-01 0.91213E-02
 0.10836     0.91220     0.37754     0.96836     0.73366     0.39054     0.88850     0.26818     0.54107E-01 0.95901    
 0.19307E-02 0.49682E-01 0.10359E-01 0.75232     0.28243     0.63518     0.40217     0.91581     0.27100     0.99926    
 0.56095     0.43037E-01 0.11591     0.12081E-02 0.71024E-01 0.69254E-01 0.24914     0.79043     0.90709     0.25804    
 0.91501     0.32269     0.15001     0.12107     0.75601E-02 0.25708     0.30118E-02 0.11693E-01 0.20190     0.72783E-01
 0.21537     0.92034     0.28418     0.51136     0.95440E-01 0.84061E-01 0.17318E-01 0.18625E-02 0.31266E-02 0.15944E-01
 0.56130E-02 0.72631     0.23183     0.64433E-01 0.35837     0.35160     0.16893     0.95048E-02 0.10580E-01 0.81746E-02
 0.86797E-02 0.13147E-02 0.81335E-01 0.17215E-02 0.35092E-01 0.27749     0.14719     0.35319E-01 0.11842E-01 0.14189E-01
 0.68056E-02 0.39701E-02 0.13135E-01 0.28621     0.49249E-02 0.87551     0.53105E-02 0.32084E-02 0.19696E-01 0.41683E-01
 0.60386E-02 0.51117E-02 0.63940E-02 0.15991     0.31522E-01 0.34040E-01 0.29442     0.11130E-01 0.37973E-01 0.21590    
 0.35371E-02 0.56051E-02 0.54911E-02 0.10470E-01 0.33980E-01 0.48082E-01 0.28312     0.55478     0.34704     0.83066    
 0.16744     0.38061E-01 0.44754E-01 0.10219E-01 0.94284E-02 0.84886E-02 0.30546E-01 0.41013     0.34909     0.50045    
 0.77901     0.50120     0.69824     0.81405     0.10733     0.34637E-01 0.17566E-01 0.17757E-01 0.23944E-01 0.10866    
 0.43487     0.84039     0.68494     0.94569     0.70243     0.58071     0.45151     0.33097     0.34034     0.74113E-02
 0.38393E-01 0.67621E-01 0.74478     0.44378     0.94994     0.70787     0.93340     0.82049     0.80729     0.20422    
 0.37596     0.28069E-01 0.17982E-01 0.23042E-01 0.20260     0.78054     0.70579     0.92988     0.88403     0.76748    
 0.87301     0.51454     0.19716     0.32381     0.61115E-02 0.25908     0.33829E-01 0.62642     0.59129     0.81738    
 0.77328     0.97711     0.66797     0.88769     0.58379     0.10962     0.55600E-01 0.38633E-02 0.48236E-01 0.13315    
 0.45055     0.79446     0.87545     0.65889     0.87260     0.62368     0.33895     0.17830     0.18828E-01 0.25021E-01
 0.60695E-02 0.24395E-01 0.22945     0.22982     0.48147     0.92447     0.59736     0.64441     0.19821     0.11178    
 0.26782E-01 0.45761E-02 0.46536E-02 0.12910E-01 0.14170E-01 0.37369     0.30905     0.21732     0.50412     0.47248    
 0.14761     0.23468E-01 0.17827E-01 0.12138E-01 0.10224E-01 0.36987E-02 0.27593E-01 0.56296E-02 0.43637E-01 0.18812    
 0.20753     0.99670E-01 0.23361E-01 0.20733E-01 0.12937E-01 0.10262E-01 0.23597E-01 0.79559E-01 0.13256E-01 0.73345E-01
 0.11067E-01 0.85118E-02 0.30808E-01 0.51214E-01 0.92706E-02 0.96287E-02 0.13594E-01 0.79243E-01 0.67575E-01 0.96627E-01
 0.24822     0.35468E-01 0.49153E-01 0.55816E-01 0.76742E-02 0.88257E-02 0.90957E-02 0.15679E-01 0.49284E-01 0.10969    
 0.39862     0.61267     0.56218     0.71977     0.30768     0.92838E-01 0.58644E-01 0.15584E-01 0.14794E-01 0.13926E-01
 0.51333E-01 0.37864     0.53354     0.69715     0.81963     0.72689     0.76928     0.72202     0.21062     0.54439E-01
 0.33248E-01 0.23811E-01 0.40440E-01 0.21825     0.61351     0.84120     0.83303     0.91586     0.83496     0.76204    
 0.62002     0.36282     0.27520     0.16391E-01 0.45087E-01 0.12615     0.69903     0.70882     0.91741     0.86876    
 0.92656     0.88011     0.83385     0.43052     0.45496     0.51967E-01 0.26405E-01 0.50254E-01 0.33792     0.78940    
 0.83794     0.92523     0.91960     0.88338     0.88621     0.69371     0.42040     0.26792     0.14962E-01 0.92412E-01
 0.86863E-01 0.65698     0.75984     0.87831     0.88514     0.94102     0.83748     0.85635     0.65890     0.21370    
 0.63917E-01 0.99279E-02 0.61249E-01 0.22574     0.61028     0.82803     0.88538     0.83675     0.88361     0.77488    
 0.52600     0.26309     0.40191E-01 0.27456E-01 0.13047E-01 0.46713E-01 0.29880     0.44463     0.68412     0.87133    
 0.76938     0.74397     0.34178     0.16812     0.44875E-01 0.10894E-01 0.10138E-01 0.19745E-01 0.30990E-01 0.28115    
 0.41890     0.44240     0.64189     0.59570     0.18952     0.49619E-01 0.29649E-01 0.20401E-01 0.17588E-01 0.95618E-02
 0.31207E-01 0.14156E-01 0.66398E-01 0.21988     0.29110     0.20730     0.40555E-01 0.31213E-01 0.21998E-01 0.21689E-01
 0.42423E-01 0.80217E-01 0.30295E-01 0.61001E-01 0.19894E-01 0.17872E-01 0.47323E-01 0.67003E-01 0.14640E-01 0.16498E-01
 0.24771E-01 0.91262E-01 0.12991     0.20264     0.29822     0.89347E-01 0.76843E-01 0.53079E-01 0.14107E-01 0.14152E-01
 0.14190E-01 0.22655E-01 0.73866E-01 0.20686     0.52338     0.69251     0.69699     0.74238     0.46219     0.18356    
 0.83974E-01 0.22661E-01 0.21900E-01 0.21126E-01 0.82815E-01 0.43556     0.66129     0.80068     0.86692     0.83559    
 0.82782     0.74379     0.33074     0.85464E-01 0.57019E-01 0.30281E-01 0.65279E-01 0.34477     0.71694     0.87425    
 0.90095     0.93295     0.90006     0.84845     0.72024     0.43746     0.33608     0.29555E-01 0.58700E-01 0.21371    
 0.73736     0.82957     0.93303     0.93122     0.94713     0.92152     0.87334     0.60461     0.56124     0.93742E-01
 0.37038E-01 0.97932E-01 0.48408     0.83220     0.90193     0.94650     0.94966     0.93498     0.91754     0.79463    
 0.59899     0.33888     0.30023E-01 0.89856E-01 0.17965     0.72294     0.84581     0.92171     0.93543     0.95108    
 0.90932     0.88192     0.73381     0.34334     0.94505E-01 0.20448E-01 0.94207E-01 0.34507     0.71640     0.87171    
 0.91650     0.90951     0.91556     0.85344     0.65971     0.37470     0.81062E-01 0.39297E-01 0.25913E-01 0.88133E-01
 0.40245     0.61127     0.79396     0.88550     0.85140     0.81500     0.49097     0.26242     0.78058E-01 0.22974E-01
 0.20478E-01 0.32635E-01 0.62225E-01 0.34321     0.53821     0.61277     0.73045     0.68897     0.27183     0.95388E-01
 0.47370E-01 0.32103E-01 0.30727E-01 0.21225E-01 0.40754E-01 0.29213E-01 0.10930     0.30171     0.38727     0.33383    
 0.66301E-01 0.45264E-01 0.33137E-01 0.39703E-01 0.75938E-01 0.11597     0.62469E-01 0.73073E-01 0.31029E-01 0.31389E-01
 0.73029E-01 0.96097E-01 0.21767E-01 0.23885E-01 0.39754E-01 0.13242     0.23040     0.33704     0.39488     0.18390    
 0.12596     0.63014E-01 0.21288E-01 0.21226E-01 0.19155E-01 0.31160E-01 0.10929     0.31886     0.62540     0.75910    
 0.77731     0.78843     0.58088     0.29001     0.12236     0.31240E-01 0.30325E-01 0.29773E-01 0.12646     0.50500    
 0.73375     0.84668     0.88877     0.87604     0.85990     0.77707     0.43271     0.12954     0.89891E-01 0.38805E-01
 0.10031     0.45176     0.76902     0.88626     0.91519     0.93240     0.91362     0.87616     0.77073     0.51500    
 0.43805     0.46748E-01 0.84575E-01 0.30794     0.77844     0.86698     0.93054     0.93528     0.94274     0.92479    
 0.88836     0.69551     0.64925     0.15919     0.52504E-01 0.17321     0.59243     0.86148     0.91453     0.94238    
 0.94473     0.93737     0.92167     0.84241     0.70573     0.45453     0.53348E-01 0.12013     0.29578     0.78281    
 0.87957     0.92749     0.93733     0.94412     0.92195     0.89796     0.79384     0.47212     0.15447     0.37905E-01
 0.15716     0.46565     0.78718     0.89244     0.92134     0.92023     0.92111     0.88363     0.74654     0.49369    
 0.15402     0.64342E-01 0.50656E-01 0.16059     0.51979     0.71208     0.84298     0.89241     0.87737     0.85102    
 0.60736     0.37840     0.13478     0.46332E-01 0.39793E-01 0.57680E-01 0.11532     0.45422     0.63578     0.70460    
 0.77671     0.74771     0.36908     0.16240     0.76384E-01 0.52023E-01 0.56000E-01 0.43951E-01 0.60811E-01 0.52950E-01
 0.17515     0.40418     0.47303     0.44179     0.10216     0.66333E-01 0.49961E-01 0.68637E-01 0.13243     0.18774    
 0.11796     0.10545     0.47106E-01 0.50085E-01 0.11027     0.13957     0.30404E-01 0.32474E-01 0.61194E-01 0.19671    
 0.35362     0.47297     0.50722     0.30159     0.20099     0.84833E-01 0.29596E-01 0.29575E-01 0.24487E-01 0.42001E-01
 0.15094     0.40904     0.68635     0.79407     0.81662     0.81342     0.64180     0.38520     0.17158     0.41973E-01
 0.40442E-01 0.41081E-01 0.17405     0.56088     0.76325     0.85421     0.88262     0.87706     0.86408     0.78943    
 0.49625     0.18217     0.13173     0.49792E-01 0.14580     0.51636     0.78796     0.86979     0.89096     0.89958    
 0.88812     0.86551     0.79019     0.56380     0.53084     0.67535E-01 0.12116     0.38750     0.79428     0.85975    
 0.89258     0.88283     0.89008     0.88772     0.87415     0.73099     0.68669     0.25003     0.71236E-01 0.27345    
 0.64387     0.86599     0.88843     0.88987     0.87582     0.88589     0.89302     0.85433     0.75909     0.54560    
 0.88572E-01 0.16344     0.40861     0.80929     0.87875     0.89572     0.88561     0.89020     0.89229     0.89062    
 0.82619     0.55992     0.23816     0.64477E-01 0.24349     0.54853     0.82501     0.88665     0.89347     0.88497    
 0.89482     0.87979     0.78892     0.58419     0.24260     0.10504     0.89438E-01 0.25275     0.59836     0.76039    
 0.85356     0.87588     0.86525     0.85535     0.67452     0.47519     0.20611     0.84582E-01 0.70928E-01 0.96627E-01
 0.18824     0.55478     0.68262     0.74245     0.79181     0.77284     0.44825     0.23496     0.11888     0.85079E-01
 0.96273E-01 0.82029E-01 0.92685E-01 0.85938E-01 0.26088     0.48774     0.53034     0.51511     0.14337     0.95132E-01
 0.76019E-01 0.11053     0.20375     0.27174     0.19424     0.15548     0.67936E-01 0.74712E-01 0.15693     0.18940    
 0.41394E-01 0.44305E-01 0.89716E-01 0.26644     0.45638     0.57363     0.58677     0.40625     0.29474     0.11421    
 0.39991E-01 0.40121E-01 0.32204E-01 0.55929E-01 0.18899     0.46242     0.71413     0.80904     0.83432     0.81810    
 0.66683     0.46467     0.21692     0.54774E-01 0.53144E-01 0.55575E-01 0.21432     0.59100     0.76515     0.83957    
 0.85819     0.85734     0.84943     0.77724     0.52748     0.23217     0.18062     0.61610E-01 0.19583     0.54005    
 0.78384     0.82916     0.82344     0.81150     0.81857     0.82847     0.78796     0.57226     0.57058     0.95620E-01
 0.15154     0.45591     0.78349     0.82474     0.78921     0.68713     0.69606     0.78456     0.83443     0.74018    
 0.68884     0.35535     0.93701E-01 0.36867     0.66462     0.85179     0.81859     0.69598     0.57172     0.69266    
 0.82143     0.84501     0.78822     0.58642     0.14693     0.20320     0.51769     0.81083     0.85825     0.80765    
 0.69230     0.69377     0.80597     0.86532     0.84053     0.62018     0.33488     0.10716     0.33558     0.61257    
 0.84293     0.86255     0.82244     0.78288     0.82659     0.85613     0.80496     0.65198     0.33268     0.17361    
 0.14732     0.35671     0.64073     0.78562     0.84299     0.83592     0.82580     0.84070     0.70502     0.54481    
 0.28778     0.14488     0.12460     0.15816     0.28464     0.61274     0.69013     0.75187     0.78504     0.77243    
 0.49606     0.29787     0.17559     0.13871     0.16002     0.14243     0.13909     0.13492     0.35916     0.52191    
 0.55571     0.55395     0.18045     0.12851     0.11257     0.16580     0.28504     0.36255     0.28964     0.21023    
 0.92437E-01 0.10866     0.20353     0.23020     0.55423E-01 0.60025E-01 0.12226     0.32784     0.52992     0.64244    
 0.63952     0.49849     0.38299     0.13799     0.53062E-01 0.54351E-01 0.43491E-01 0.72358E-01 0.21651     0.48730    
 0.72981     0.82362     0.84976     0.82108     0.68793     0.52632     0.23897     0.68877E-01 0.68902E-01 0.71310E-01
 0.23923     0.59592     0.76175     0.83062     0.84610     0.84921     0.84074     0.75933     0.54286     0.26198    
 0.22517     0.75517E-01 0.23492     0.53860     0.77377     0.79757     0.76383     0.72645     0.75737     0.79976    
 0.77874     0.55562     0.55761     0.13630     0.16661     0.51570     0.76632     0.79735     0.68160     0.45368    
 0.45990     0.67866     0.80152     0.74888     0.69023     0.43277     0.12389     0.41609     0.68643     0.84320    
 0.75744     0.45981     0.23536     0.45907     0.75807     0.84022     0.81550     0.59121     0.22239     0.22934    
 0.60456     0.81073     0.84942     0.72381     0.45899     0.45536     0.72484     0.85096     0.85330     0.66532    
 0.39422     0.15797     0.38557     0.66818     0.85733     0.84960     0.75908     0.67906     0.76550     0.84463    
 0.81731     0.69730     0.39199     0.23571     0.19826     0.42487     0.66420     0.81189     0.83786     0.80302    
 0.79411     0.83383     0.72230     0.58980     0.35189     0.19917     0.17576     0.21546     0.36721     0.62428    
 0.69172     0.75872     0.77299     0.76644     0.52005     0.34531     0.23035     0.19241     0.21685     0.19558    
 0.18296     0.19838     0.43764     0.51255     0.56067     0.56471     0.20705     0.16242     0.15304     0.21886    
 0.34760     0.42810     0.36467     0.24414     0.12175     0.15557     0.23343     0.25043     0.71575E-01 0.79070E-01
 0.15468     0.37642     0.57762     0.68296     0.67521     0.57579     0.43252     0.15248     0.70996E-01 0.72100E-01
 0.59687E-01 0.90874E-01 0.23092     0.48094     0.72520     0.82651     0.85224     0.81313     0.69655     0.54427    
 0.23688     0.85453E-01 0.87886E-01 0.87461E-01 0.24592     0.57910     0.75595     0.83369     0.85688     0.86271    
 0.84343     0.74246     0.54348     0.26355     0.24603     0.94133E-01 0.24965     0.51846     0.76393     0.80116    
 0.78338     0.75350     0.77730     0.80478     0.76678     0.52925     0.51206     0.17580     0.16961     0.54281    
 0.74939     0.80236     0.70379     0.51919     0.52192     0.70319     0.80188     0.75687     0.68730     0.42315    
 0.14854     0.38723     0.69762     0.84641     0.77757     0.52154     0.31199     0.52337     0.77609     0.84532    
 0.82675     0.54725     0.24662     0.22193     0.60466     0.80139     0.86212     0.75332     0.52354     0.51574    
 0.75667     0.85852     0.85360     0.65692     0.35800     0.17856     0.34848     0.66907     0.85757     0.85821    
 0.77678     0.70600     0.78311     0.85597     0.81613     0.67965     0.37158     0.24094     0.20982     0.39424    
 0.64120     0.82556     0.84295     0.80299     0.79671     0.84030     0.71816     0.57325     0.33969     0.21008    
 0.19823     0.22735     0.35437     0.57149     0.68649     0.76446     0.76053     0.75877     0.51724     0.35003    
 0.23565     0.20026     0.22543     0.20566     0.19123     0.22636     0.43394     0.47587     0.55229     0.54803    
 0.22035     0.18509     0.17037     0.22432     0.33436     0.40597     0.34782     0.22848     0.14347     0.19678    
 0.23704     0.25255     0.89306E-01 0.99492E-01 0.17542     0.38340     0.56288     0.65997     0.65794     0.58368    
 0.40881     0.16005     0.95025E-01 0.91628E-01 0.86339E-01 0.11551     0.22965     0.41789     0.65526     0.77657    
 0.80445     0.75331     0.64047     0.48039     0.22276     0.10930     0.11280     0.10891     0.23962     0.53551    
 0.71681     0.81445     0.85496     0.86224     0.82474     0.70058     0.50856     0.25030     0.23738     0.11592    
 0.24069     0.46746     0.73291     0.80601     0.81846     0.80776     0.81468     0.80816     0.73051     0.48574    
 0.43298     0.17647     0.15643     0.49585     0.70512     0.80333     0.76983     0.70045     0.69813     0.77083    
 0.80175     0.72894     0.62933     0.31440     0.13590     0.28448     0.64361     0.83083     0.81461     0.69730    
 0.59275     0.70214     0.81170     0.82797     0.77812     0.43112     0.19183     0.17851     0.47583     0.74054    
 0.86096     0.81039     0.70238     0.69191     0.81478     0.85307     0.80500     0.55822     0.28278     0.17318    
 0.27937     0.57248     0.80760     0.85279     0.81253     0.77518     0.81725     0.85386     0.75913     0.56919    
 0.31991     0.24337     0.22213     0.32965     0.54145     0.78271     0.82403     0.80305     0.79812     0.82706    
 0.64733     0.45677     0.28005     0.22090     0.23251     0.23626     0.28331     0.44049     0.62764     0.73478    
 0.72507     0.72041     0.46080     0.27869     0.18425     0.18476     0.23272     0.21744     0.18145     0.18469    
 0.32454     0.40607     0.51778     0.49435     0.21751     0.17704     0.14182     0.17578     0.27550     0.34438    
 0.27936     0.17539     0.13080     0.19159     0.22183     0.24721     0.11261     0.11800     0.16629     0.30989    
 0.44864     0.54800     0.55550     0.47168     0.30365     0.15323     0.11970     0.11539     0.13769     0.15954    
 0.21965     0.29908     0.48153     0.61999     0.65381     0.59110     0.47302     0.34470     0.21030     0.15116    
 0.15468     0.14718     0.23787     0.46727     0.59734     0.71097     0.78384     0.79096     0.72637     0.59082    
 0.43059     0.24575     0.21953     0.14170     0.22430     0.38146     0.64986     0.75884     0.79047     0.79275    
 0.79085     0.75373     0.63840     0.41440     0.31839     0.14361     0.13229     0.37320     0.58669     0.74136    
 0.76834     0.75703     0.74944     0.76899     0.74528     0.61771     0.46631     0.19616     0.10586     0.17889    
 0.47959     0.74195     0.78804     0.74804     0.71004     0.75587     0.78595     0.73012     0.61507     0.29869    
 0.14122     0.13983     0.31435     0.57651     0.79082     0.79905     0.75606     0.74365     0.80443     0.77648    
 0.65649     0.42457     0.21912     0.14393     0.21986     0.43525     0.65542     0.77481     0.78811     0.77404    
 0.79065     0.78002     0.59348     0.42901     0.25967     0.19477     0.18144     0.26401     0.41430     0.62682    
 0.71972     0.75076     0.73924     0.73745     0.47296     0.31113     0.22007     0.18032     0.18837     0.19049    
 0.21806     0.30082     0.46718     0.62029     0.63504     0.60562     0.34470     0.18165     0.13939     0.15140    
 0.18743     0.17888     0.15129     0.13864     0.20149     0.29891     0.44848     0.40684     0.20562     0.14767    
 0.10574     0.13321     0.21741     0.27566     0.21557     0.13495     0.10314     0.15296     0.20518     0.25011    
 0.15341     0.13783     0.13710     0.20504     0.30541     0.41115     0.42374     0.31952     0.19113     0.13282    
 0.14289     0.15666     0.23308     0.24681     0.22708     0.20417     0.30016     0.39612     0.42230     0.37442    
 0.28972     0.23621     0.22306     0.22968     0.23416     0.21842     0.27328     0.40688     0.40428     0.47764    
 0.56345     0.56292     0.49789     0.41849     0.35285     0.27586     0.22722     0.18957     0.22815     0.29966    
 0.52596     0.61175     0.62880     0.64336     0.64024     0.59258     0.49467     0.34429     0.22688     0.13570    
 0.13389     0.26599     0.39702     0.56881     0.65474     0.66560     0.65120     0.64830     0.58461     0.43402    
 0.28690     0.14919     0.10541     0.13686     0.30223     0.52209     0.62663     0.64967     0.64119     0.66108    
 0.63354     0.50067     0.38742     0.19755     0.10217     0.10342     0.19957     0.36209     0.57159     0.65276    
 0.66169     0.64480     0.66117     0.54756     0.42779     0.26554     0.10894     0.61580E-01 0.11082     0.27082    
 0.42218     0.54587     0.63782     0.65349     0.63691     0.55318     0.37108     0.26677     0.11683     0.57423E-01
 0.53074E-01 0.11853     0.26054     0.39973     0.48144     0.60279     0.56848     0.51824     0.29293     0.20221    
 0.10993     0.52856E-01 0.46507E-01 0.55561E-01 0.10854     0.19789     0.29143     0.42746     0.50093     0.41796    
 0.24474     0.13975     0.10212     0.64680E-01 0.54469E-01 0.52993E-01 0.65062E-01 0.10002     0.15208     0.21254    
 0.37810     0.32732     0.21088     0.14677     0.10398     0.97652E-01 0.10983     0.12325     0.10633     0.10044    
 0.10407     0.14526     0.21084     0.29104     0.23266     0.17527     0.13517     0.15855     0.19750     0.25576    
 0.26690     0.20614     0.14576     0.13345     0.18425     0.23607     0.35984     0.37542     0.26742     0.18796    
 0.22218     0.23086     0.22769     0.22165     0.20684     0.21577     0.28035     0.34296     0.34742     0.31961    
 0.37952     0.39788     0.25576     0.26107     0.29114     0.28201     0.27248     0.28790     0.33311     0.35682    
 0.28217     0.27078     0.26559     0.27913     0.43313     0.39240     0.34352     0.35228     0.36486     0.37433    
 0.36823     0.32861     0.21206     0.17810     0.18800     0.24232     0.25106     0.35646     0.42416     0.40505    
 0.39368     0.40343     0.37025     0.29423     0.20565     0.16277     0.13951     0.15139     0.22522     0.28499    
 0.34214     0.39527     0.39731     0.40179     0.36041     0.27362     0.22593     0.13680     0.79044E-01 0.79791E-01
 0.13435     0.21595     0.29671     0.35338     0.40377     0.38881     0.36368     0.27582     0.23244     0.12809    
 0.34537E-01 0.14256E-01 0.35774E-01 0.12907     0.22635     0.27856     0.36116     0.40966     0.35801     0.28129    
 0.21722     0.12771     0.24706E-01 0.35557E-02 0.31547E-02 0.25071E-01 0.12617     0.23345     0.25723     0.39631    
 0.34865     0.28875     0.21538     0.13797     0.35054E-01 0.31598E-02 0.12719E-02 0.32923E-02 0.34903E-01 0.13598    
 0.21387     0.27603     0.39639     0.27064     0.22199     0.15454     0.79149E-01 0.14990E-01 0.31900E-02 0.32766E-02
 0.15089E-01 0.76958E-01 0.16404     0.20150     0.35561     0.31365     0.25520     0.20060     0.13651     0.75979E-01
 0.35727E-01 0.25737E-01 0.33563E-01 0.78620E-01 0.13941     0.19338     0.25586     0.39376     0.35180     0.23764    
 0.18845     0.17145     0.13380     0.12380     0.12953     0.14014     0.15960     0.17988     0.25919     0.34511    
 0.44674     0.46378     0.30249     0.22296     0.21662     0.16206     0.14252     0.16146     0.19450     0.24337    
 0.34351     0.42899     0.42698     0.40124     0.51240     0.40647     0.20057     0.17551     0.16087     0.15185    
 0.17590     0.24432     0.36104     0.43958     0.34648     0.33384     0.30110     0.32625     0.40831     0.23911    
 0.17212     0.16853     0.18712     0.24033     0.31253     0.35940     0.24147     0.23410     0.25847     0.25644    
 0.19897     0.24358     0.23874     0.19254     0.19268     0.21892     0.23973     0.24572     0.19428     0.19776    
 0.18075     0.19067     0.21812     0.17433     0.17190     0.19672     0.19134     0.19467     0.18573     0.17653    
 0.16163     0.12032     0.79413E-01 0.78605E-01 0.11565     0.16118     0.16302     0.16282     0.19638     0.19090    
 0.16956     0.15136     0.14554     0.76093E-01 0.16520E-01 0.57531E-02 0.17658E-01 0.75316E-01 0.14093     0.15668    
 0.18190     0.22630     0.18041     0.15565     0.15807     0.75219E-01 0.71127E-02 0.16403E-03 0.12340E-03 0.71916E-02
 0.75372E-01 0.16486     0.16724     0.25619     0.22652     0.18309     0.20787     0.11931     0.17063E-01 0.12682E-03
 0.57290E-05 0.12891E-03 0.17114E-01 0.11857     0.20700     0.21851     0.36358     0.21668     0.23744     0.19408    
 0.78834E-01 0.59888E-02 0.12145E-03 0.15530E-03 0.59867E-02 0.77180E-01 0.19570     0.24019     0.36073     0.36688    
 0.31397     0.26163     0.17664     0.76909E-01 0.17667E-01 0.71457E-02 0.16288E-01 0.78882E-01 0.18343     0.25280    
 0.31221     0.49011     0.44474     0.29019     0.26208     0.20215     0.11571     0.74576E-01 0.77008E-01 0.12108    
 0.19584     0.23617     0.32650     0.41608     0.44039     0.44145     0.28414     0.24045     0.21667     0.16130    
 0.14939     0.16763     0.19389     0.23869     0.33606     0.42611     0.41647     0.40945     0.52528     0.34897    
 0.20412     0.19377     0.16886     0.15885     0.18324     0.24880     0.35618     0.43009     0.34050     0.31948    
 0.28587     0.37129     0.40407     0.23057     0.18822     0.18699     0.20029     0.25025     0.31610     0.35760    
 0.23825     0.23097     0.25697     0.22979     0.20635     0.27579     0.25179     0.20488     0.21202     0.23526    
 0.25178     0.24656     0.19456     0.19206     0.17483     0.19494     0.21510     0.17097     0.18894     0.21861    
 0.20901     0.21083     0.20026     0.18380     0.16507     0.12225     0.79198E-01 0.76326E-01 0.11637     0.17204    
 0.16894     0.17584     0.21253     0.21184     0.18238     0.16140     0.15146     0.79542E-01 0.17155E-01 0.63006E-02
 0.18636E-01 0.77356E-01 0.14742     0.16992     0.19262     0.24460     0.19234     0.16613     0.16537     0.78054E-01
 0.80902E-02 0.20482E-03 0.16807E-03 0.80900E-02 0.79365E-01 0.16466     0.18061     0.25606     0.24885     0.18348    
 0.20717     0.11941     0.17992E-01 0.17615E-03 0.68389E-05 0.17421E-03 0.18024E-01 0.12003     0.20818     0.21797    
 0.36938     0.22048     0.22088     0.19685     0.77557E-01 0.63008E-02 0.16966E-03 0.21852E-03 0.62280E-02 0.77333E-01
 0.18689     0.25163     0.32689     0.39396     0.32340     0.24456     0.17220     0.77799E-01 0.18539E-01 0.77386E-02
 0.17475E-01 0.78173E-01 0.18005     0.24121     0.31793     0.46087     0.43956     0.29035     0.26410     0.18897    
 0.11697     0.79495E-01 0.80116E-01 0.12085     0.19267     0.23041     0.32356     0.40148     0.34433     0.32961    