       N       E                     dE             d eps       ncg     rms          rms(c)
DAV:   1     0.882977153562E+02    0.88298E+02   -0.46986E+03   280   0.553E+02
DAV:   2    -0.152206236291E+02   -0.10352E+03   -0.98942E+02   436   0.160E+02
DAV:   3    -0.232334975088E+02   -0.80129E+01   -0.79118E+01   400   0.526E+01
DAV:   4    -0.233670980109E+02   -0.13360E+00   -0.13331E+00   316   0.804E+00
DAV:   5    -0.233709500372E+02   -0.38520E-02   -0.38512E-02   410   0.126E+00    0.691E+00
RMM:   6    -0.222134504543E+02    0.11575E+01   -0.53912E+00   292   0.116E+01    0.263E+00
RMM:   7    -0.218274595373E+02    0.38599E+00   -0.52389E-01   289   0.319E+00    0.150E+00
RMM:   8    -0.217684394951E+02    0.59020E-01   -0.23524E-01   305   0.241E+00    0.355E-01
RMM:   9    -0.217640200068E+02    0.44195E-02   -0.79943E-03   333   0.543E-01    0.973E-02
RMM:  10    -0.217633626339E+02    0.65737E-03   -0.18175E-03   326   0.219E-01    0.453E-02
RMM:  11    -0.217634114466E+02   -0.48813E-04   -0.23249E-03   311   0.214E-01    0.668E-02
RMM:  12    -0.217631783713E+02    0.23308E-03   -0.78419E-04   301   0.149E-01    0.163E-02
RMM:  13    -0.217633838320E+02   -0.20546E-03   -0.12626E-04   289   0.612E-02    0.188E-02
RMM:  14    -0.217634025500E+02   -0.18718E-04   -0.26861E-05   308   0.260E-02    0.647E-03
RMM:  15    -0.217634884103E+02   -0.85860E-04   -0.16653E-05   288   0.167E-02    0.478E-03
RMM:  16    -0.217635474697E+02   -0.59059E-04   -0.45782E-06   249   0.941E-03    0.417E-03
RMM:  17    -0.217635913325E+02   -0.43863E-04   -0.52535E-06   226   0.957E-03    0.276E-03
RMM:  18    -0.217635934112E+02   -0.20787E-05   -0.46011E-07   184   0.330E-03    0.248E-03
RMM:  19    -0.217635958747E+02   -0.24634E-05   -0.49782E-07   187   0.314E-03    0.242E-03
RMM:  20    -0.217635959377E+02   -0.63002E-07   -0.52795E-08    99   0.150E-03
   1 F= -.22356076E+02 E0= -.22356076E+02  d E =-.766406E-10
