 vasp.5.4.4.18Apr17-6-g9f103f2a35 (build Jun 30 2017 11:15:00) complex          
  
 executed on    STALLO_VASP_5.4.4 date 2019.11.08  11:44:55
 running on    4 total cores
 distrk:  each k-point on    4 cores,    1 groups
 distr:  one band on NCORES_PER_BAND=   2 cores,    2 groups


--------------------------------------------------------------------------------------------------------


 INCAR:
 POTCAR:   PAW_PBE Mo 08Apr2002                   
 POTCAR:    PAW_PBE S 17Jan2003                   
 POTCAR:   PAW_PBE Mo 08Apr2002                   
   VRHFIN =Mo: 4p5s4d                                                           
   LEXCH  = PE                                                                  
   EATOM  =   217.5180 eV,   15.9871 Ry                                         
                                                                                
   TITEL  = PAW_PBE Mo 08Apr2002                                                
   LULTRA =        F    use ultrasoft PP ?                                      
   IUNSCR =        1    unscreen: 0-lin 1-nonlin 2-no                           
   RPACOR =    2.200    partial core radius                                     
   POMASS =   95.940; ZVAL   =    6.000    mass and valenz                      
   RCORE  =    2.750    outmost cutoff radius                                   
   RWIGS  =    2.750; RWIGS  =    1.455    wigner-seitz radius (au A)           
   ENMAX  =  224.584; ENMIN  =  168.438 eV                                      
   RCLOC  =    2.111    cutoff for local pot                                    
   LCOR   =        T    correct aug charges                                     
   LPAW   =        T    paw PP                                                  
   EAUG   =  345.278                                                            
   DEXC   =    -.088                                                            
   RMAX   =    3.077    core radius for proj-oper                               
   RAUG   =    1.300    factor for augmentation sphere                          
   RDEP   =    2.815    radius for radial grids                                 
   QCUT   =   -4.063; QGAM   =    8.126    optimization parameters              
                                                                                
   Description                                                                  
     l     E      TYP  RCUT    TYP  RCUT                                        
     2   .000     23  2.500                                                     
     2   .000     23  2.500                                                     
     0   .000     23  2.600                                                     
     0  1.000     23  2.600                                                     
     1   .400     23  2.750                                                     
     1  2.000     23  2.750                                                     
     3   .000      7   .000                                                     
  local pseudopotential read in
  partial core-charges read in
  atomic valenz-charges read in
  non local Contribution for L=           2  read in
    real space projection operators read in
  non local Contribution for L=           2  read in
    real space projection operators read in
  non local Contribution for L=           0  read in
    real space projection operators read in
  non local Contribution for L=           0  read in
    real space projection operators read in
  non local Contribution for L=           1  read in
    real space projection operators read in
  non local Contribution for L=           1  read in
    real space projection operators read in
    PAW grid and wavefunctions read in
 
   number of l-projection  operators is LMAX  =           6
   number of lm-projection operators is LMMAX =          18
 
 POTCAR:    PAW_PBE S 17Jan2003                   
   VRHFIN =S : s2p4                                                             
   LEXCH  = PE                                                                  
   EATOM  =   276.8230 eV,   20.3459 Ry                                         
                                                                                
   TITEL  = PAW_PBE S 17Jan2003                                                 
   LULTRA =        F    use ultrasoft PP ?                                      
   IUNSCR =        1    unscreen: 0-lin 1-nonlin 2-no                           
   RPACOR =    1.500    partial core radius                                     
   POMASS =   32.066; ZVAL   =    6.000    mass and valenz                      
   RCORE  =    1.900    outmost cutoff radius                                   
   RWIGS  =    2.200; RWIGS  =    1.164    wigner-seitz radius (au A)           
   ENMAX  =  280.000; ENMIN  =  194.016 eV                                      
   ICORE  =        2    local potential                                         
   LCOR   =        T    correct aug charges                                     
   LPAW   =        T    paw PP                                                  
   EAUG   =  335.092                                                            
   DEXC   =     .000                                                            
   RMAX   =    2.867    core radius for proj-oper                               
   RAUG   =    1.300    factor for augmentation sphere                          
   RDEP   =    1.954    radius for radial grids                                 
   QCUT   =   -4.360; QGAM   =    8.721    optimization parameters              
                                                                                
   Description                                                                  
     l     E      TYP  RCUT    TYP  RCUT                                        
     0   .000     23  1.900                                                     
     0   .000     23  1.900                                                     
     1   .000     23  1.900                                                     
     1   .000     23  1.900                                                     
     2   .000     23  1.900                                                     
  local pseudopotential read in
  partial core-charges read in
  atomic valenz-charges read in
  non local Contribution for L=           0  read in
    real space projection operators read in
  non local Contribution for L=           0  read in
    real space projection operators read in
  non local Contribution for L=           1  read in
    real space projection operators read in
  non local Contribution for L=           1  read in
    real space projection operators read in
    PAW grid and wavefunctions read in
 
   number of l-projection  operators is LMAX  =           4
   number of lm-projection operators is LMMAX =           8
 

 ----------------------------------------------------------------------------- 
|                                                                             |
|  ADVICE TO THIS USER RUNNING 'VASP/VAMP'   (HEAR YOUR MASTER'S VOICE ...):  |
|                                                                             |
|      You have a (more or less) 'small supercell' and for smaller cells      |
|      it is recommended  to use the reciprocal-space projection scheme!      |
|      The real space optimization is not  efficient for small cells and it   |
|      is also less accurate ...                                              |
|      Therefore set LREAL=.FALSE. in the  INCAR file                         |
|                                                                             |
 ----------------------------------------------------------------------------- 

 Optimization of the real space projectors (new method)

 maximal supplied QI-value         = 13.61
 optimisation between [QCUT,QGAM] = [  8.03, 16.19] = [ 18.05, 73.41] Ry 
 Optimized for a Real-space Cutoff    1.97 Angstroem

   l    n(q)    QCUT    max X(q) W(low)/X(q) W(high)/X(q)  e(spline) 
   2      9     8.028     3.671    0.48E-05    0.25E-04    0.70E-07
   2      9     8.028    25.193    0.26E-03    0.70E-03    0.27E-06
   0     10     8.028    26.379    0.19E-04    0.25E-05    0.73E-08
   0     10     8.028    49.709    0.28E-04    0.49E-04    0.74E-07
   1      9     8.028     7.852    0.15E-04    0.15E-05    0.29E-07
   1      9     8.028    10.693    0.92E-04    0.27E-04    0.86E-07
 Optimization of the real space projectors (new method)

 maximal supplied QI-value         = 19.84
 optimisation between [QCUT,QGAM] = [  7.94, 16.07] = [ 17.64, 72.34] Ry 
 Optimized for a Real-space Cutoff    1.55 Angstroem

   l    n(q)    QCUT    max X(q) W(low)/X(q) W(high)/X(q)  e(spline) 
   0      7     7.937     5.487    0.27E-04    0.20E-04    0.12E-07
   0      7     7.937    85.627    0.10E-03    0.36E-03    0.16E-06
   1      7     7.937     3.530    0.15E-04    0.55E-04    0.56E-07
   1      7     7.937    42.714    0.49E-03    0.85E-03    0.12E-06
 PAW_PBE Mo 08Apr2002                   :
 energy of atom  1       EATOM= -217.5180
 kinetic energy error for atom=    0.0235 (will be added to EATOM!!)
  PAW_PBE S 17Jan2003                   :
 energy of atom  2       EATOM= -276.8230
 kinetic energy error for atom=    0.0359 (will be added to EATOM!!)
 
 
 POSCAR: MoS2_mp-2815_computed                   
  positions in cartesian coordinates
  velocities in cartesian coordinates
  No initial velocities read in
 exchange correlation table for  LEXCH =        8
   RHO(1)=    0.500       N(1)  =     2000
   RHO(2)=  100.500       N(2)  =     4000
 


--------------------------------------------------------------------------------------------------------


 ion  position               nearest neighbor table
   1  0.333  0.667  0.220-   3 2.42   2 2.42   2 2.42   3 2.42   3 2.42   2 2.42
   2  0.667  0.333  0.128-   1 2.42   1 2.42   1 2.42
   3  0.667  0.333  0.313-   1 2.42   1 2.42   1 2.42
 
  LATTYP: Found a hexagonal cell.
 ALAT       =     3.1903157300
 C/A-ratio  =     5.2907002719
  
  Lattice vectors:
  
 A1 = (   3.1903157300,   0.0000000000,   0.0000000000)
 A2 = (  -1.5951578650,   2.7628944683,   0.0000000000)
 A3 = (   0.0000000000,   0.0000000000,  16.8790043000)


Analysis of symmetry for initial positions (statically):
=====================================================================
 Subroutine PRICEL returns:
 Original cell was already a primitive cell.
 

 Routine SETGRP: Setting up the symmetry group for a 
 hexagonal supercell.


 Subroutine GETGRP returns: Found 12 space group operations
 (whereof  6 operations were pure point group operations)
 out of a pool of 24 trial point group operations.


The static configuration has the point symmetry C_3v.
 The point group associated with its full space group is D_3h.


Analysis of symmetry for dynamics (positions and initial velocities):
=====================================================================
 Subroutine PRICEL returns:
 Original cell was already a primitive cell.
 

 Routine SETGRP: Setting up the symmetry group for a 
 hexagonal supercell.


 Subroutine GETGRP returns: Found 12 space group operations
 (whereof  6 operations were pure point group operations)
 out of a pool of 24 trial point group operations.


The dynamic configuration has the point symmetry C_3v.
 The point group associated with its full space group is D_3h.


 Subroutine INISYM returns: Found 12 space group operations
 (whereof  6 operations are pure point group operations),
 and found     1 'primitive' translations

 
 
 KPOINTS: k-density: 4.0                          

Automatic generation of k-mesh.
Space group operators:
 irot       det(A)        alpha          n_x          n_y          n_z        tau_x        tau_y        tau_z
    1     1.000000     0.000000     1.000000     0.000000     0.000000     0.000000     0.000000     0.000000
    2     1.000000   120.000000     0.000000     0.000000    -1.000000     0.000000     0.000000     0.000000
    3     1.000000   120.000000     0.000000     0.000000     1.000000     0.000000     0.000000     0.000000
    4    -1.000000   180.000000     1.000000    -0.000000     0.000000     0.000000     0.000000     0.000000
    5    -1.000000   180.000000     0.500000    -0.866025     0.000000     0.000000     0.000000     0.000000
    6    -1.000000   179.999999    -0.500000    -0.866025     0.000000     0.000000     0.000000     0.000000
    7    -1.000000    60.000000     0.000000     0.000000    -1.000000    -0.000000     0.000000     0.440755
    8    -1.000000   180.000000     0.000000     0.000000     1.000000     0.000000     0.000000     0.440755
    9    -1.000000    60.000000     0.000000     0.000000     1.000000     0.000000     0.000001     0.440755
   10     1.000000   180.000000     0.866025    -0.500000     0.000000     0.000000     0.000000     0.440755
   11     1.000000   179.999999     0.000000     1.000000     0.000000     0.000000     0.000000     0.440755
   12     1.000000   180.000000     0.866025     0.500000     0.000000    -0.000000     0.000001     0.440755
 
 Subroutine IBZKPT returns following result:
 ===========================================
 
 Found     10 irreducible k-points:
 
 Following reciprocal coordinates:
            Coordinates               Weight
  0.000000  0.000000  0.000000      1.000000
  0.125000  0.000000  0.000000      6.000000
  0.250000  0.000000  0.000000      6.000000
  0.375000  0.000000  0.000000      6.000000
  0.500000  0.000000  0.000000      3.000000
  0.125000  0.125000  0.000000      6.000000
  0.250000  0.125000  0.000000     12.000000
  0.375000  0.125000  0.000000     12.000000
  0.250000  0.250000  0.000000      6.000000
  0.375000  0.250000  0.000000      6.000000
 
 Following cartesian coordinates:
            Coordinates               Weight
  0.000000  0.000000  0.000000      1.000000
  0.039181  0.022621  0.000000      6.000000
  0.078362  0.045242  0.000000      6.000000
  0.117543  0.067864  0.000000      6.000000
  0.156724  0.090485  0.000000      3.000000
  0.039181  0.067864  0.000000      6.000000
  0.078362  0.090485  0.000000     12.000000
  0.117543  0.113106  0.000000     12.000000
  0.078362  0.135727  0.000000      6.000000
  0.117543  0.158348  0.000000      6.000000
 


--------------------------------------------------------------------------------------------------------




 Dimension of arrays:
   k-points           NKPTS =     10   k-points in BZ     NKDIM =     10   number of bands    NBANDS=     14
   number of dos      NEDOS =   2401   number of ions     NIONS =      3
   non local maximal  LDIM  =      6   non local SUM 2l+1 LMDIM =     18
   total plane-waves  NPLWV =  10080
   max r-space proj   IRMAX =   2204   max aug-charges    IRDMAX=   4549
   dimension x,y,z NGX =    12 NGY =   12 NGZ =   70
   dimension x,y,z NGXF=    24 NGYF=   24 NGZF=  140
   support grid    NGXF=    24 NGYF=   24 NGZF=  140
   ions per type =               1   2
   NGX,Y,Z   is equivalent  to a cutoff of   6.25,  6.25,  6.89 a.u.
   NGXF,Y,Z  is equivalent  to a cutoff of  12.51, 12.51, 13.79 a.u.

 SYSTEM =  unknown system                          
 POSCAR =  MoS2_mp-2815_computed                   

 Startparameter for this run:
   NWRITE =      2    write-flag & timer
   PREC   = normal    normal or accurate (medium, high low for compatibility)
   ISTART =      0    job   : 0-new  1-cont  2-samecut
   ICHARG =      2    charge: 1-file 2-atom 10-const
   ISPIN  =      1    spin polarized calculation?
   LNONCOLLINEAR =      F non collinear calculations
   LSORBIT =      F    spin-orbit coupling
   INIWAV =      1    electr: 0-lowe 1-rand  2-diag
   LASPH  =      F    aspherical Exc in radial PAW
   METAGGA=      F    non-selfconsistent MetaGGA calc.

 Electronic Relaxation 1
   ENCUT  =  250.0 eV  18.37 Ry    4.29 a.u.   4.11  4.11 21.76*2*pi/ulx,y,z
   ENINI  =  250.0     initial cutoff
   ENAUG  =  345.3 eV  augmentation charge cutoff
   NELM   =     60;   NELMIN=  4; NELMDL= -5     # of ELM steps 
   EDIFF  = 0.1E-05   stopping-criterion for ELM
   LREAL  =      T    real-space projection
   NLSPLINE    = F    spline interpolate recip. space projectors
   LCOMPAT=      F    compatible to vasp.4.4
   GGA_COMPAT  = T    GGA compatible to vasp.4.4-vasp.4.6
   LMAXPAW     = -100 max onsite density
   LMAXMIX     =    2 max onsite mixed and CHGCAR
   VOSKOWN=      0    Vosko Wilk Nusair interpolation
   ROPT   =   -0.00050  -0.00050
 Ionic relaxation
   EDIFFG = 0.1E-04   stopping-criterion for IOM
   NSW    =      0    number of steps for IOM
   NBLOCK =      1;   KBLOCK =      1    inner block; outer block 
   IBRION =     -1    ionic relax: 0-MD 1-quasi-New 2-CG
   NFREE  =      0    steps in history (QN), initial steepest desc. (CG)
   ISIF   =      2    stress and relaxation
   IWAVPR =     10    prediction:  0-non 1-charg 2-wave 3-comb
   ISYM   =      2    0-nonsym 1-usesym 2-fastsym
   LCORR  =      T    Harris-Foulkes like correction to forces

   POTIM  = 0.5000    time-step for ionic-motion
   TEIN   =    0.0    initial temperature
   TEBEG  =    0.0;   TEEND  =   0.0 temperature during run
   SMASS  =  -3.00    Nose mass-parameter (am)
   estimated Nose-frequenzy (Omega)   =  0.10E-29 period in steps =****** mass=  -0.233E-27a.u.
   SCALEE = 1.0000    scale energy and forces
   NPACO  =    256;   APACO  = 16.0  distance and # of slots for P.C.
   PSTRESS=    0.0 pullay stress

  Mass of Ions in am
   POMASS =  95.94 32.07
  Ionic Valenz
   ZVAL   =   6.00  6.00
  Atomic Wigner-Seitz radii
   RWIGS  =  -1.00 -1.00
  virtual crystal weights 
   VCA    =   1.00  1.00
   NELECT =      18.0000    total number of electrons
   NUPDOWN=      -1.0000    fix difference up-down

 DOS related values:
   EMIN   = -12.00;   EMAX   = 12.00  energy-range for DOS
   EFERMI =   0.00
   ISMEAR =     0;   SIGMA  =   0.20  broadening in eV -4-tet -1-fermi 0-gaus

 Electronic relaxation 2 (details)
   IALGO  =     68    algorithm
   LDIAG  =      T    sub-space diagonalisation (order eigenvalues)
   LSUBROT=      F    optimize rotation matrix (better conditioning)
   TURBO    =      0    0=normal 1=particle mesh
   IRESTART =      0    0=no restart 2=restart with 2 vectors
   NREBOOT  =      0    no. of reboots
   NMIN     =      0    reboot dimension
   EREF     =   0.00    reference energy to select bands
   IMIX   =      4    mixing-type and parameters
     AMIX     =   0.40;   BMIX     =  1.00
     AMIX_MAG =   1.60;   BMIX_MAG =  1.00
     AMIN     =   0.10
     WC   =   100.;   INIMIX=   1;  MIXPRE=   1;  MAXMIX= -45

 Intra band minimization:
   WEIMIN = 0.0000     energy-eigenvalue tresh-hold
   EBREAK =  0.18E-07  absolut break condition
   DEPER  =   0.30     relativ break condition  

   TIME   =   0.40     timestep for ELM

  volume/ion in A,a.u.               =      49.59       334.67
  Fermi-wavevector in a.u.,A,eV,Ry     =   0.809687  1.530087  8.919895  0.655594
  Thomas-Fermi vector in A             =   1.918724
 
 Write flags
   LWAVE        =      F    write WAVECAR
   LDOWNSAMPLE  =      F    k-point downsampling of WAVECAR
   LCHARG       =      T    write CHGCAR
   LVTOT        =      F    write LOCPOT, total local potential
   LVHAR        =      F    write LOCPOT, Hartree potential only
   LELF         =      T    write electronic localiz. function (ELF)
   LORBIT       =     11    0 simple, 1 ext, 2 COOP (PROOUT), +10 PAW based schemes


 Dipole corrections
   LMONO  =      F    monopole corrections only (constant potential shift)
   LDIPOL =      F    correct potential (dipole corrections)
   IDIPOL =      0    1-x, 2-y, 3-z, 4-all directions 
   EPSILON=  1.0000000 bulk dielectric constant

 Exchange correlation treatment:
   GGA     =    --    GGA type
   LEXCH   =     8    internal setting for exchange type
   VOSKOWN=      0    Vosko Wilk Nusair interpolation
   LHFCALC =     F    Hartree Fock is set to
   LHFONE  =     F    Hartree Fock one center treatment
   AEXX    =    0.0000 exact exchange contribution

 Linear response parameters
   LEPSILON=     F    determine dielectric tensor
   LRPA    =     F    only Hartree local field effects (RPA)
   LNABLA  =     F    use nabla operator in PAW spheres
   LVEL    =     F    velocity operator in full k-point grid
   LINTERFAST=   F  fast interpolation
   KINTER  =     0    interpolate to denser k-point grid
   CSHIFT  =0.1000    complex shift for real part using Kramers Kronig
   OMEGAMAX=  -1.0    maximum frequency
   DEG_THRESHOLD= 0.2000000E-02 threshold for treating states as degnerate
   RTIME   =   -0.100 relaxation time in fs
  (WPLASMAI=    0.000 imaginary part of plasma frequency in eV, 0.658/RTIME)
   DFIELD  = 0.0000000 0.0000000 0.0000000 field for delta impulse in time
 
 Orbital magnetization related:
   ORBITALMAG=     F  switch on orbital magnetization
   LCHIMAG   =     F  perturbation theory with respect to B field
   DQ        =  0.001000  dq finite difference perturbation B field
   LLRAUG    =     F  two centre corrections for induced B field



--------------------------------------------------------------------------------------------------------


 Static calculation
 charge density and potential will be updated during run
 non-spin polarized calculation
 RMM-DIIS sequential band-by-band and
  variant of blocked Davidson during initial phase
 perform sub-space diagonalisation
    before iterative eigenvector-optimisation
 modified Broyden-mixing scheme, WC =      100.0
 initial mixing is a Kerker type mixing with AMIX =  0.4000 and BMIX =      1.0000
 Hartree-type preconditioning will be used
 using additional bands            5
 real space projection scheme for non local part
 use partial core corrections
 calculate Harris-corrections to forces 
   (improved forces if not selfconsistent)
 use gradient corrections 
 use of overlap-Matrix (Vanderbilt PP)
 Gauss-broadening in eV      SIGMA  =   0.20


--------------------------------------------------------------------------------------------------------


  energy-cutoff  :      250.00
  volume of cell :      148.78
      direct lattice vectors                 reciprocal lattice vectors
     3.190315730  0.000000000  0.000000000     0.313448600  0.180969634  0.000000000
    -1.595157865  2.762894468  0.000000000     0.000000000  0.361939267  0.000000000
     0.000000000  0.000000000 16.879004300     0.000000000  0.000000000  0.059245201

  length of vectors
     3.190315730  3.190315730 16.879004300     0.361939267  0.361939267  0.059245201


 
 k-points in units of 2pi/SCALE and weight: k-density: 4.0                          
   0.00000000  0.00000000  0.00000000       0.016
   0.03918108  0.02262120  0.00000000       0.094
   0.07836215  0.04524241  0.00000000       0.094
   0.11754323  0.06786361  0.00000000       0.094
   0.15672430  0.09048482  0.00000000       0.047
   0.03918108  0.06786361  0.00000000       0.094
   0.07836215  0.09048482  0.00000000       0.188
   0.11754323  0.11310602  0.00000000       0.188
   0.07836215  0.13572723  0.00000000       0.094
   0.11754323  0.15834843  0.00000000       0.094
 
 k-points in reciprocal lattice and weights: k-density: 4.0                          
   0.00000000  0.00000000  0.00000000       0.016
   0.12500000  0.00000000  0.00000000       0.094
   0.25000000  0.00000000  0.00000000       0.094
   0.37500000  0.00000000  0.00000000       0.094
   0.50000000  0.00000000  0.00000000       0.047
   0.12500000  0.12500000  0.00000000       0.094
   0.25000000  0.12500000  0.00000000       0.188
   0.37500000  0.12500000  0.00000000       0.188
   0.25000000  0.25000000  0.00000000       0.094
   0.37500000  0.25000000  0.00000000       0.094
 
 position of ions in fractional coordinates (direct lattice) 
   0.33333300  0.66666700  0.22037740
   0.66666700  0.33333300  0.12766551
   0.66666600  0.33333300  0.31308929
 
 position of ions in cartesian coordinates  (Angst):
  -0.00000160  1.84193057  3.71975108
   1.59515946  0.92096390  2.15486668
   1.59515627  0.92096390  5.28463547
 


--------------------------------------------------------------------------------------------------------


 k-point  1 :   0.0000 0.0000 0.0000  plane waves:    1297
 k-point  2 :   0.1250 0.0000 0.0000  plane waves:    1307
 k-point  3 :   0.2500 0.0000 0.0000  plane waves:    1333
 k-point  4 :   0.3750 0.0000 0.0000  plane waves:    1349
 k-point  5 :   0.5000 0.0000 0.0000  plane waves:    1360
 k-point  6 :   0.1250 0.1250 0.0000  plane waves:    1314
 k-point  7 :   0.2500 0.1250 0.0000  plane waves:    1333
 k-point  8 :   0.3750 0.1250 0.0000  plane waves:    1345
 k-point  9 :   0.2500 0.2500 0.0000  plane waves:    1356
 k-point 10 :   0.3750 0.2500 0.0000  plane waves:    1334

 maximum and minimum number of plane-waves per node :       686      645

 maximum number of plane-waves:      1360
 maximum index in each direction: 
   IXMAX=    4   IYMAX=    4   IZMAX=   21
   IXMIN=   -4   IYMIN=   -4   IZMIN=  -21


 real space projection operators:
  total allocation   :        425.38 KBytes
  max/ min on nodes  :        214.88        210.50


 parallel 3D FFT for wavefunctions:
    minimum data exchange during FFTs selected (reduces bandwidth)
 parallel 3D FFT for charge:
    minimum data exchange during FFTs selected (reduces bandwidth)


 total amount of memory used by VASP MPI-rank0    33367. kBytes
=======================================================================

   base      :      30000. kBytes
   nonlr-proj:        375. kBytes
   fftplans  :        832. kBytes
   grid      :       1343. kBytes
   one-center:         31. kBytes
   wavefun   :        786. kBytes
 
     INWAV:  cpu time    0.0000: real time    0.0002
 Broyden mixing: mesh for mixing (old mesh)
   NGX =  9   NGY =  9   NGZ = 43
  (NGX  = 24   NGY  = 24   NGZ  =140)
  gives a total of   3483 points

 initial charge density was supplied:
 charge density of overlapping atoms calculated
 number of electron      18.0000000 magnetization 
 keeping initial charge density in first step


--------------------------------------------------------------------------------------------------------


 Maximum index for non-local projection operator         1064
 Maximum index for augmentation-charges         1073 (set IRDMAX)


--------------------------------------------------------------------------------------------------------


 First call to EWALD:  gamma=   0.334
 Maximum number of real-space cells 5x 5x 1
 Maximum number of reciprocal cells 2x 2x 8

    FEWALD:  cpu time    0.0020: real time    0.0016


--------------------------------------- Iteration      1(   1)  ---------------------------------------


    POTLOK:  cpu time    0.0160: real time    0.3392
    SETDIJ:  cpu time    0.0020: real time    0.0030
     EDDAV:  cpu time    0.0860: real time    0.0883
       DOS:  cpu time    0.0010: real time    0.0019
    --------------------------------------------
      LOOP:  cpu time    0.1050: real time    0.4325

 eigenvalue-minimisations  :   280
 total energy-change (2. order) : 0.8829772E+02  (-0.4698616E+03)
 number of electron      18.0000000 magnetization 
 augmentation part       18.0000000 magnetization 

 Free energy of the ion-electron system (eV)
  ---------------------------------------------------
  alpha Z        PSCENC =        19.92779736
  Ewald energy   TEWEN  =      1634.51317315
  -Hartree energ DENC   =     -2352.15051463
  -exchange      EXHF   =         0.00000000
  -V(xc)+E(xc)   XCENC  =       -36.31054434
  PAW double counting   =       406.88651198     -329.34073203
  entropy T*S    EENTRO =        -0.04189692
  eigenvalues    EBANDS =       -26.25465496
  atomic energy  EATOM  =       771.06857575
  Solvation  Ediel_sol  =         0.00000000
  ---------------------------------------------------
  free energy    TOTEN  =        88.29771536 eV

  energy without entropy =       88.33961227  energy(sigma->0) =       88.31866381


--------------------------------------------------------------------------------------------------------




--------------------------------------- Iteration      1(   2)  ---------------------------------------


     EDDAV:  cpu time    0.1170: real time    0.1189
       DOS:  cpu time    0.0020: real time    0.0018
    --------------------------------------------
      LOOP:  cpu time    0.1190: real time    0.1207

 eigenvalue-minimisations  :   436
 total energy-change (2. order) :-0.1035183E+03  (-0.9894211E+02)
 number of electron      18.0000000 magnetization 
 augmentation part       18.0000000 magnetization 

 Free energy of the ion-electron system (eV)
  ---------------------------------------------------
  alpha Z        PSCENC =        19.92779736
  Ewald energy   TEWEN  =      1634.51317315
  -Hartree energ DENC   =     -2352.15051463
  -exchange      EXHF   =         0.00000000
  -V(xc)+E(xc)   XCENC  =       -36.31054434
  PAW double counting   =       406.88651198     -329.34073203
  entropy T*S    EENTRO =        -0.00000000
  eigenvalues    EBANDS =      -129.81489087
  atomic energy  EATOM  =       771.06857575
  Solvation  Ediel_sol  =         0.00000000
  ---------------------------------------------------
  free energy    TOTEN  =       -15.22062363 eV

  energy without entropy =      -15.22062363  energy(sigma->0) =      -15.22062363


--------------------------------------------------------------------------------------------------------




--------------------------------------- Iteration      1(   3)  ---------------------------------------


     EDDAV:  cpu time    0.1090: real time    0.1093
       DOS:  cpu time    0.0010: real time    0.0018
    --------------------------------------------
      LOOP:  cpu time    0.1100: real time    0.1110

 eigenvalue-minimisations  :   400
 total energy-change (2. order) :-0.8012874E+01  (-0.7911834E+01)
 number of electron      18.0000000 magnetization 
 augmentation part       18.0000000 magnetization 

 Free energy of the ion-electron system (eV)
  ---------------------------------------------------
  alpha Z        PSCENC =        19.92779736
  Ewald energy   TEWEN  =      1634.51317315
  -Hartree energ DENC   =     -2352.15051463
  -exchange      EXHF   =         0.00000000
  -V(xc)+E(xc)   XCENC  =       -36.31054434
  PAW double counting   =       406.88651198     -329.34073203
  entropy T*S    EENTRO =        -0.00000000
  eigenvalues    EBANDS =      -137.82776474
  atomic energy  EATOM  =       771.06857575
  Solvation  Ediel_sol  =         0.00000000
  ---------------------------------------------------
  free energy    TOTEN  =       -23.23349751 eV

  energy without entropy =      -23.23349751  energy(sigma->0) =      -23.23349751


--------------------------------------------------------------------------------------------------------




--------------------------------------- Iteration      1(   4)  ---------------------------------------


     EDDAV:  cpu time    0.0890: real time    0.0890
       DOS:  cpu time    0.0020: real time    0.0018
    --------------------------------------------
      LOOP:  cpu time    0.0910: real time    0.0907

 eigenvalue-minimisations  :   316
 total energy-change (2. order) :-0.1336005E+00  (-0.1333103E+00)
 number of electron      18.0000000 magnetization 
 augmentation part       18.0000000 magnetization 

 Free energy of the ion-electron system (eV)
  ---------------------------------------------------
  alpha Z        PSCENC =        19.92779736
  Ewald energy   TEWEN  =      1634.51317315
  -Hartree energ DENC   =     -2352.15051463
  -exchange      EXHF   =         0.00000000
  -V(xc)+E(xc)   XCENC  =       -36.31054434
  PAW double counting   =       406.88651198     -329.34073203
  entropy T*S    EENTRO =        -0.00000000
  eigenvalues    EBANDS =      -137.96136525
  atomic energy  EATOM  =       771.06857575
  Solvation  Ediel_sol  =         0.00000000
  ---------------------------------------------------
  free energy    TOTEN  =       -23.36709801 eV

  energy without entropy =      -23.36709801  energy(sigma->0) =      -23.36709801


--------------------------------------------------------------------------------------------------------




--------------------------------------- Iteration      1(   5)  ---------------------------------------


     EDDAV:  cpu time    0.1110: real time    0.1112
       DOS:  cpu time    0.0010: real time    0.0018
    CHARGE:  cpu time    0.0060: real time    0.0064
    MIXING:  cpu time    0.0020: real time    0.0014
    --------------------------------------------
      LOOP:  cpu time    0.1200: real time    0.1207

 eigenvalue-minimisations  :   410
 total energy-change (2. order) :-0.3852026E-02  (-0.3851153E-02)
 number of electron      17.9999965 magnetization 
 augmentation part       -0.9518582 magnetization 

 Broyden mixing:
  rms(total) = 0.69125E+00    rms(broyden)= 0.69105E+00
  rms(prec ) = 0.82799E+00
  weight for this iteration     100.00

 Free energy of the ion-electron system (eV)
  ---------------------------------------------------
  alpha Z        PSCENC =        19.92779736
  Ewald energy   TEWEN  =      1634.51317315
  -Hartree energ DENC   =     -2352.15051463
  -exchange      EXHF   =         0.00000000
  -V(xc)+E(xc)   XCENC  =       -36.31054434
  PAW double counting   =       406.88651198     -329.34073203
  entropy T*S    EENTRO =        -0.00000000
  eigenvalues    EBANDS =      -137.96521727
  atomic energy  EATOM  =       771.06857575
  Solvation  Ediel_sol  =         0.00000000
  ---------------------------------------------------
  free energy    TOTEN  =       -23.37095004 eV

  energy without entropy =      -23.37095004  energy(sigma->0) =      -23.37095004


--------------------------------------------------------------------------------------------------------




--------------------------------------- Iteration      1(   6)  ---------------------------------------


    POTLOK:  cpu time    0.0110: real time    0.0114
    SETDIJ:  cpu time    0.0020: real time    0.0021
    EDDIAG:  cpu time    0.0150: real time    0.0153
  RMM-DIIS:  cpu time    0.0510: real time    0.0512
    ORTHCH:  cpu time    0.0010: real time    0.0018
       DOS:  cpu time    0.0020: real time    0.0018
    CHARGE:  cpu time    0.0060: real time    0.0062
    MIXING:  cpu time    0.0010: real time    0.0008
    --------------------------------------------
      LOOP:  cpu time    0.0890: real time    0.0906

 eigenvalue-minimisations  :   292
 total energy-change (2. order) : 0.1157500E+01  (-0.5391172E+00)
 number of electron      17.9999959 magnetization 
 augmentation part       -0.4078104 magnetization 

 Broyden mixing:
  rms(total) = 0.26339E+00    rms(broyden)= 0.26317E+00
  rms(prec ) = 0.36825E+00
  weight for this iteration     100.00

 eigenvalues of (default mixing * dielectric matrix)
  average eigenvalue GAMMA=   0.8347
  0.8347

 Free energy of the ion-electron system (eV)
  ---------------------------------------------------
  alpha Z        PSCENC =        19.92779736
  Ewald energy   TEWEN  =      1634.51317315
  -Hartree energ DENC   =     -2350.66975524
  -exchange      EXHF   =         0.00000000
  -V(xc)+E(xc)   XCENC  =       -35.41282450
  PAW double counting   =       426.18751546     -349.53263473
  entropy T*S    EENTRO =        -0.00000003
  eigenvalues    EBANDS =      -138.29529768
  atomic energy  EATOM  =       771.06857575
  Solvation  Ediel_sol  =         0.00000000
  ---------------------------------------------------
  free energy    TOTEN  =       -22.21345045 eV

  energy without entropy =      -22.21345042  energy(sigma->0) =      -22.21345044


--------------------------------------------------------------------------------------------------------




--------------------------------------- Iteration      1(   7)  ---------------------------------------


    POTLOK:  cpu time    0.0120: real time    0.0142
    SETDIJ:  cpu time    0.0020: real time    0.0021
    EDDIAG:  cpu time    0.0150: real time    0.0147
  RMM-DIIS:  cpu time    0.0490: real time    0.0497
    ORTHCH:  cpu time    0.0020: real time    0.0018
       DOS:  cpu time    0.0020: real time    0.0018
    CHARGE:  cpu time    0.0060: real time    0.0062
    MIXING:  cpu time    0.0000: real time    0.0005
    --------------------------------------------
      LOOP:  cpu time    0.0880: real time    0.0910

 eigenvalue-minimisations  :   289
 total energy-change (2. order) : 0.3859909E+00  (-0.5238907E-01)
 number of electron      17.9999962 magnetization 
 augmentation part       -0.6032923 magnetization 

 Broyden mixing:
  rms(total) = 0.15013E+00    rms(broyden)= 0.15010E+00
  rms(prec ) = 0.16992E+00
  weight for this iteration     100.00

 eigenvalues of (default mixing * dielectric matrix)
  average eigenvalue GAMMA=   1.3718
  0.6635  2.0800

 Free energy of the ion-electron system (eV)
  ---------------------------------------------------
  alpha Z        PSCENC =        19.92779736
  Ewald energy   TEWEN  =      1634.51317315
  -Hartree energ DENC   =     -2355.16541653
  -exchange      EXHF   =         0.00000000
  -V(xc)+E(xc)   XCENC  =       -35.54939496
  PAW double counting   =       444.38075328     -367.94819321
  entropy T*S    EENTRO =        -0.00000000
  eigenvalues    EBANDS =      -133.05475438
  atomic energy  EATOM  =       771.06857575
  Solvation  Ediel_sol  =         0.00000000
  ---------------------------------------------------
  free energy    TOTEN  =       -21.82745954 eV

  energy without entropy =      -21.82745954  energy(sigma->0) =      -21.82745954


--------------------------------------------------------------------------------------------------------




--------------------------------------- Iteration      1(   8)  ---------------------------------------


    POTLOK:  cpu time    0.0110: real time    0.0111
    SETDIJ:  cpu time    0.0030: real time    0.0021
    EDDIAG:  cpu time    0.0140: real time    0.0147
  RMM-DIIS:  cpu time    0.0540: real time    0.0536
    ORTHCH:  cpu time    0.0020: real time    0.0018
       DOS:  cpu time    0.0010: real time    0.0018
    CHARGE:  cpu time    0.0070: real time    0.0062
    MIXING:  cpu time    0.0000: real time    0.0011
    --------------------------------------------
      LOOP:  cpu time    0.0920: real time    0.0924

 eigenvalue-minimisations  :   305
 total energy-change (2. order) : 0.5902004E-01  (-0.2352423E-01)
 number of electron      17.9999961 magnetization 
 augmentation part       -0.5628852 magnetization 

 Broyden mixing:
  rms(total) = 0.35545E-01    rms(broyden)= 0.35521E-01
  rms(prec ) = 0.41121E-01
  weight for this iteration     100.00

 eigenvalues of (default mixing * dielectric matrix)
  average eigenvalue GAMMA=   1.4895
  1.9031  1.9031  0.6623

 Free energy of the ion-electron system (eV)
  ---------------------------------------------------
  alpha Z        PSCENC =        19.92779736
  Ewald energy   TEWEN  =      1634.51317315
  -Hartree energ DENC   =     -2358.64565667
  -exchange      EXHF   =         0.00000000
  -V(xc)+E(xc)   XCENC  =       -35.27344127
  PAW double counting   =       470.78818251     -394.87696234
  entropy T*S    EENTRO =        -0.00000000
  eigenvalues    EBANDS =      -129.27010798
  atomic energy  EATOM  =       771.06857575
  Solvation  Ediel_sol  =         0.00000000
  ---------------------------------------------------
  free energy    TOTEN  =       -21.76843950 eV

  energy without entropy =      -21.76843950  energy(sigma->0) =      -21.76843950


--------------------------------------------------------------------------------------------------------




--------------------------------------- Iteration      1(   9)  ---------------------------------------


    POTLOK:  cpu time    0.0110: real time    0.0110
    SETDIJ:  cpu time    0.0030: real time    0.0021
    EDDIAG:  cpu time    0.0140: real time    0.0147
  RMM-DIIS:  cpu time    0.0590: real time    0.0584
    ORTHCH:  cpu time    0.0010: real time    0.0018
       DOS:  cpu time    0.0020: real time    0.0017
    CHARGE:  cpu time    0.0060: real time    0.0062
    MIXING:  cpu time    0.0000: real time    0.0006
    --------------------------------------------
      LOOP:  cpu time    0.0960: real time    0.0966

 eigenvalue-minimisations  :   333
 total energy-change (2. order) : 0.4419488E-02  (-0.7994314E-03)
 number of electron      17.9999961 magnetization 
 augmentation part       -0.5571033 magnetization 

 Broyden mixing:
  rms(total) = 0.97251E-02    rms(broyden)= 0.97167E-02
  rms(prec ) = 0.14532E-01
  weight for this iteration     100.00

 eigenvalues of (default mixing * dielectric matrix)
  average eigenvalue GAMMA=   1.5044
  0.6644  1.0472  2.4463  1.8598

 Free energy of the ion-electron system (eV)
  ---------------------------------------------------
  alpha Z        PSCENC =        19.92779736
  Ewald energy   TEWEN  =      1634.51317315
  -Hartree energ DENC   =     -2359.72178917
  -exchange      EXHF   =         0.00000000
  -V(xc)+E(xc)   XCENC  =       -35.21512902
  PAW double counting   =       476.75096606     -400.92251511
  entropy T*S    EENTRO =        -0.00000000
  eigenvalues    EBANDS =      -128.16509903
  atomic energy  EATOM  =       771.06857575
  Solvation  Ediel_sol  =         0.00000000
  ---------------------------------------------------
  free energy    TOTEN  =       -21.76402001 eV

  energy without entropy =      -21.76402001  energy(sigma->0) =      -21.76402001


--------------------------------------------------------------------------------------------------------




--------------------------------------- Iteration      1(  10)  ---------------------------------------


    POTLOK:  cpu time    0.0120: real time    0.0113
    SETDIJ:  cpu time    0.0020: real time    0.0021
    EDDIAG:  cpu time    0.0150: real time    0.0147
  RMM-DIIS:  cpu time    0.0580: real time    0.0580
    ORTHCH:  cpu time    0.0010: real time    0.0018
       DOS:  cpu time    0.0020: real time    0.0017
    CHARGE:  cpu time    0.0060: real time    0.0062
    MIXING:  cpu time    0.0010: real time    0.0007
    --------------------------------------------
      LOOP:  cpu time    0.0970: real time    0.0965

 eigenvalue-minimisations  :   326
 total energy-change (2. order) : 0.6573729E-03  (-0.1817523E-03)
 number of electron      17.9999961 magnetization 
 augmentation part       -0.5616660 magnetization 

 Broyden mixing:
  rms(total) = 0.45328E-02    rms(broyden)= 0.45247E-02
  rms(prec ) = 0.76596E-02
  weight for this iteration     100.00

 eigenvalues of (default mixing * dielectric matrix)
  average eigenvalue GAMMA=   1.6865
  0.6650  1.0300  2.2990  2.2990  2.1395

 Free energy of the ion-electron system (eV)
  ---------------------------------------------------
  alpha Z        PSCENC =        19.92779736
  Ewald energy   TEWEN  =      1634.51317315
  -Hartree energ DENC   =     -2360.70659892
  -exchange      EXHF   =         0.00000000
  -V(xc)+E(xc)   XCENC  =       -35.19119329
  PAW double counting   =       479.41864137     -403.62322629
  entropy T*S    EENTRO =        -0.00000000
  eigenvalues    EBANDS =      -127.17053177
  atomic energy  EATOM  =       771.06857575
  Solvation  Ediel_sol  =         0.00000000
  ---------------------------------------------------
  free energy    TOTEN  =       -21.76336263 eV

  energy without entropy =      -21.76336263  energy(sigma->0) =      -21.76336263


--------------------------------------------------------------------------------------------------------




--------------------------------------- Iteration      1(  11)  ---------------------------------------


    POTLOK:  cpu time    0.0120: real time    0.0123
    SETDIJ:  cpu time    0.0020: real time    0.0021
    EDDIAG:  cpu time    0.0150: real time    0.0148
  RMM-DIIS:  cpu time    0.0560: real time    0.0561
    ORTHCH:  cpu time    0.0010: real time    0.0018
       DOS:  cpu time    0.0020: real time    0.0018
    CHARGE:  cpu time    0.0060: real time    0.0062
    MIXING:  cpu time    0.0020: real time    0.0007
    --------------------------------------------
      LOOP:  cpu time    0.0960: real time    0.0958

 eigenvalue-minimisations  :   311
 total energy-change (2. order) :-0.4881272E-04  (-0.2324888E-03)
 number of electron      17.9999961 magnetization 
 augmentation part       -0.5576647 magnetization 

 Broyden mixing:
  rms(total) = 0.66817E-02    rms(broyden)= 0.66760E-02
  rms(prec ) = 0.83397E-02
  weight for this iteration     100.00

 eigenvalues of (default mixing * dielectric matrix)
  average eigenvalue GAMMA=   1.6637
  2.8855  2.7106  0.6655  1.4021  1.4021  0.9167

 Free energy of the ion-electron system (eV)
  ---------------------------------------------------
  alpha Z        PSCENC =        19.92779736
  Ewald energy   TEWEN  =      1634.51317315
  -Hartree energ DENC   =     -2361.81951921
  -exchange      EXHF   =         0.00000000
  -V(xc)+E(xc)   XCENC  =       -35.17623862
  PAW double counting   =       478.63127743     -402.82286415
  entropy T*S    EENTRO =        -0.00000000
  eigenvalues    EBANDS =      -126.08561316
  atomic energy  EATOM  =       771.06857575
  Solvation  Ediel_sol  =         0.00000000
  ---------------------------------------------------
  free energy    TOTEN  =       -21.76341145 eV

  energy without entropy =      -21.76341145  energy(sigma->0) =      -21.76341145


--------------------------------------------------------------------------------------------------------




--------------------------------------- Iteration      1(  12)  ---------------------------------------


    POTLOK:  cpu time    0.0110: real time    0.0121
    SETDIJ:  cpu time    0.0030: real time    0.0021
    EDDIAG:  cpu time    0.0140: real time    0.0148
  RMM-DIIS:  cpu time    0.0540: real time    0.0539
    ORTHCH:  cpu time    0.0010: real time    0.0018
       DOS:  cpu time    0.0030: real time    0.0018
    CHARGE:  cpu time    0.0050: real time    0.0061
    MIXING:  cpu time    0.0010: real time    0.0007
    --------------------------------------------
      LOOP:  cpu time    0.0920: real time    0.0933

 eigenvalue-minimisations  :   301
 total energy-change (2. order) : 0.2330753E-03  (-0.7841927E-04)
 number of electron      17.9999961 magnetization 
 augmentation part       -0.5605689 magnetization 

 Broyden mixing:
  rms(total) = 0.16310E-02    rms(broyden)= 0.16124E-02
  rms(prec ) = 0.26421E-02
  weight for this iteration     100.00

 eigenvalues of (default mixing * dielectric matrix)
  average eigenvalue GAMMA=   1.9362
  3.8906  2.6847  2.6847  0.6655  0.9707  1.3287  1.3287

 Free energy of the ion-electron system (eV)
  ---------------------------------------------------
  alpha Z        PSCENC =        19.92779736
  Ewald energy   TEWEN  =      1634.51317315
  -Hartree energ DENC   =     -2362.21918157
  -exchange      EXHF   =         0.00000000
  -V(xc)+E(xc)   XCENC  =       -35.17500499
  PAW double counting   =       478.81045244     -402.99959697
  entropy T*S    EENTRO =        -0.00000000
  eigenvalues    EBANDS =      -125.68939355
  atomic energy  EATOM  =       771.06857575
  Solvation  Ediel_sol  =         0.00000000
  ---------------------------------------------------
  free energy    TOTEN  =       -21.76317837 eV

  energy without entropy =      -21.76317837  energy(sigma->0) =      -21.76317837


--------------------------------------------------------------------------------------------------------




--------------------------------------- Iteration      1(  13)  ---------------------------------------


    POTLOK:  cpu time    0.0120: real time    0.0122
    SETDIJ:  cpu time    0.0030: real time    0.0021
    EDDIAG:  cpu time    0.0140: real time    0.0147
  RMM-DIIS:  cpu time    0.0500: real time    0.0497
    ORTHCH:  cpu time    0.0020: real time    0.0019
       DOS:  cpu time    0.0010: real time    0.0018
    CHARGE:  cpu time    0.0070: real time    0.0062
    MIXING:  cpu time    0.0000: real time    0.0008
    --------------------------------------------
      LOOP:  cpu time    0.0890: real time    0.0893

 eigenvalue-minimisations  :   289
 total energy-change (2. order) :-0.2054607E-03  (-0.1262552E-04)
 number of electron      17.9999961 magnetization 
 augmentation part       -0.5592820 magnetization 

 Broyden mixing:
  rms(total) = 0.18806E-02    rms(broyden)= 0.18652E-02
  rms(prec ) = 0.23954E-02
  weight for this iteration     100.00

 eigenvalues of (default mixing * dielectric matrix)
  average eigenvalue GAMMA=   1.8750
  4.5407  2.7138  2.3305  1.4169  1.4169  0.6656  0.9577  0.9577

 Free energy of the ion-electron system (eV)
  ---------------------------------------------------
  alpha Z        PSCENC =        19.92779736
  Ewald energy   TEWEN  =      1634.51317315
  -Hartree energ DENC   =     -2362.70195872
  -exchange      EXHF   =         0.00000000
  -V(xc)+E(xc)   XCENC  =       -35.17001891
  PAW double counting   =       478.74897337     -402.94301720
  entropy T*S    EENTRO =        -0.00000000
  eigenvalues    EBANDS =      -125.20690863
  atomic energy  EATOM  =       771.06857575
  Solvation  Ediel_sol  =         0.00000000
  ---------------------------------------------------
  free energy    TOTEN  =       -21.76338383 eV

  energy without entropy =      -21.76338383  energy(sigma->0) =      -21.76338383


--------------------------------------------------------------------------------------------------------




--------------------------------------- Iteration      1(  14)  ---------------------------------------


    POTLOK:  cpu time    0.0120: real time    0.0118
    SETDIJ:  cpu time    0.0020: real time    0.0021
    EDDIAG:  cpu time    0.0150: real time    0.0147
  RMM-DIIS:  cpu time    0.0540: real time    0.0541
    ORTHCH:  cpu time    0.0020: real time    0.0018
       DOS:  cpu time    0.0020: real time    0.0017
    CHARGE:  cpu time    0.0060: real time    0.0062
    MIXING:  cpu time    0.0010: real time    0.0008
    --------------------------------------------
      LOOP:  cpu time    0.0940: real time    0.0933

 eigenvalue-minimisations  :   308
 total energy-change (2. order) :-0.1871798E-04  (-0.2686131E-05)
 number of electron      17.9999961 magnetization 
 augmentation part       -0.5605466 magnetization 

 Broyden mixing:
  rms(total) = 0.64743E-03    rms(broyden)= 0.60125E-03
  rms(prec ) = 0.10245E-02
  weight for this iteration     100.00

 eigenvalues of (default mixing * dielectric matrix)
  average eigenvalue GAMMA=   2.1234
  6.1007  3.0243  2.3525  2.3525  1.5171  0.6656  1.1665  0.9660  0.9660

 Free energy of the ion-electron system (eV)
  ---------------------------------------------------
  alpha Z        PSCENC =        19.92779736
  Ewald energy   TEWEN  =      1634.51317315
  -Hartree energ DENC   =     -2362.79955901
  -exchange      EXHF   =         0.00000000
  -V(xc)+E(xc)   XCENC  =       -35.17257266
  PAW double counting   =       478.58944529     -402.77939134
  entropy T*S    EENTRO =        -0.00000000
  eigenvalues    EBANDS =      -125.11087109
  atomic energy  EATOM  =       771.06857575
  Solvation  Ediel_sol  =         0.00000000
  ---------------------------------------------------
  free energy    TOTEN  =       -21.76340255 eV

  energy without entropy =      -21.76340255  energy(sigma->0) =      -21.76340255


--------------------------------------------------------------------------------------------------------




--------------------------------------- Iteration      1(  15)  ---------------------------------------


    POTLOK:  cpu time    0.0110: real time    0.0115
    SETDIJ:  cpu time    0.0020: real time    0.0021
    EDDIAG:  cpu time    0.0150: real time    0.0147
  RMM-DIIS:  cpu time    0.0490: real time    0.0494
    ORTHCH:  cpu time    0.0020: real time    0.0019
       DOS:  cpu time    0.0010: real time    0.0018
    CHARGE:  cpu time    0.0060: real time    0.0062
    MIXING:  cpu time    0.0010: real time    0.0009
    --------------------------------------------
      LOOP:  cpu time    0.0870: real time    0.0883

 eigenvalue-minimisations  :   288
 total energy-change (2. order) :-0.8586035E-04  (-0.1665282E-05)
 number of electron      17.9999961 magnetization 
 augmentation part       -0.5599964 magnetization 

 Broyden mixing:
  rms(total) = 0.47807E-03    rms(broyden)= 0.41383E-03
  rms(prec ) = 0.60570E-03
  weight for this iteration     100.00
  WARNING: grid for Broyden might be to small

 eigenvalues of (default mixing * dielectric matrix)
  average eigenvalue GAMMA=   2.1224
  5.9652  3.5773  2.6158  1.8907  1.8907  1.5766  0.6656  1.0465  1.0465  0.9496

 Free energy of the ion-electron system (eV)
  ---------------------------------------------------
  alpha Z        PSCENC =        19.92779736
  Ewald energy   TEWEN  =      1634.51317315
  -Hartree energ DENC   =     -2362.92454171
  -exchange      EXHF   =         0.00000000
  -V(xc)+E(xc)   XCENC  =       -35.17209575
  PAW double counting   =       478.63984011     -402.83064103
  entropy T*S    EENTRO =        -0.00000000
  eigenvalues    EBANDS =      -124.98559630
  atomic energy  EATOM  =       771.06857575
  Solvation  Ediel_sol  =         0.00000000
  ---------------------------------------------------
  free energy    TOTEN  =       -21.76348841 eV

  energy without entropy =      -21.76348841  energy(sigma->0) =      -21.76348841


--------------------------------------------------------------------------------------------------------




--------------------------------------- Iteration      1(  16)  ---------------------------------------


    POTLOK:  cpu time    0.0120: real time    0.0114
    SETDIJ:  cpu time    0.0020: real time    0.0021
    EDDIAG:  cpu time    0.0150: real time    0.0148
  RMM-DIIS:  cpu time    0.0460: real time    0.0459
    ORTHCH:  cpu time    0.0010: real time    0.0019
       DOS:  cpu time    0.0020: real time    0.0017
    CHARGE:  cpu time    0.0060: real time    0.0062
    MIXING:  cpu time    0.0010: real time    0.0010
    --------------------------------------------
      LOOP:  cpu time    0.0850: real time    0.0849

 eigenvalue-minimisations  :   249
 total energy-change (2. order) :-0.5905943E-04  (-0.4578181E-06)
 number of electron      17.9999961 magnetization 
 augmentation part       -0.5604443 magnetization 

 Broyden mixing:
  rms(total) = 0.41665E-03    rms(broyden)= 0.34110E-03
  rms(prec ) = 0.44964E-03
  weight for this iteration     100.00
  WARNING: grid for Broyden might be to small

 eigenvalues of (default mixing * dielectric matrix)
  average eigenvalue GAMMA=   2.4328
  7.6603  5.1734  2.9337  2.5635  2.1361  1.5050  0.6656  1.2095  0.9945  0.9945
  0.9246

 Free energy of the ion-electron system (eV)
  ---------------------------------------------------
  alpha Z        PSCENC =        19.92779736
  Ewald energy   TEWEN  =      1634.51317315
  -Hartree energ DENC   =     -2362.96844835
  -exchange      EXHF   =         0.00000000
  -V(xc)+E(xc)   XCENC  =       -35.17224370
  PAW double counting   =       478.70854625     -402.90017926
  entropy T*S    EENTRO =        -0.00000000
  eigenvalues    EBANDS =      -124.94076867
  atomic energy  EATOM  =       771.06857575
  Solvation  Ediel_sol  =         0.00000000
  ---------------------------------------------------
  free energy    TOTEN  =       -21.76354747 eV

  energy without entropy =      -21.76354747  energy(sigma->0) =      -21.76354747


--------------------------------------------------------------------------------------------------------




--------------------------------------- Iteration      1(  17)  ---------------------------------------


    POTLOK:  cpu time    0.0110: real time    0.0114
    SETDIJ:  cpu time    0.0030: real time    0.0021
    EDDIAG:  cpu time    0.0140: real time    0.0147
  RMM-DIIS:  cpu time    0.0430: real time    0.0425
    ORTHCH:  cpu time    0.0010: real time    0.0018
       DOS:  cpu time    0.0020: real time    0.0017
    CHARGE:  cpu time    0.0060: real time    0.0062
    MIXING:  cpu time    0.0010: real time    0.0010
    --------------------------------------------
      LOOP:  cpu time    0.0810: real time    0.0814

 eigenvalue-minimisations  :   226
 total energy-change (2. order) :-0.4386273E-04  (-0.5253519E-06)
 number of electron      17.9999961 magnetization 
 augmentation part       -0.5602126 magnetization 

 Broyden mixing:
  rms(total) = 0.27624E-03    rms(broyden)= 0.13826E-03
  rms(prec ) = 0.16402E-03
  weight for this iteration     100.00
  WARNING: grid for Broyden might be to small

 eigenvalues of (default mixing * dielectric matrix)
  average eigenvalue GAMMA=   2.3388
  8.0807  5.1817  2.9263  2.4977  2.1337  1.4804  0.6656  1.3284  0.9910  0.9910
  0.9306  0.8582

 Free energy of the ion-electron system (eV)
  ---------------------------------------------------
  alpha Z        PSCENC =        19.92779736
  Ewald energy   TEWEN  =      1634.51317315
  -Hartree energ DENC   =     -2362.98062860
  -exchange      EXHF   =         0.00000000
  -V(xc)+E(xc)   XCENC  =       -35.17217055
  PAW double counting   =       478.65226594     -402.84286154
  entropy T*S    EENTRO =        -0.00000000
  eigenvalues    EBANDS =      -124.92974285
  atomic energy  EATOM  =       771.06857575
  Solvation  Ediel_sol  =         0.00000000
  ---------------------------------------------------
  free energy    TOTEN  =       -21.76359133 eV

  energy without entropy =      -21.76359133  energy(sigma->0) =      -21.76359133


--------------------------------------------------------------------------------------------------------




--------------------------------------- Iteration      1(  18)  ---------------------------------------


    POTLOK:  cpu time    0.0120: real time    0.0135
    SETDIJ:  cpu time    0.0020: real time    0.0021
    EDDIAG:  cpu time    0.0150: real time    0.0147
  RMM-DIIS:  cpu time    0.0420: real time    0.0419
    ORTHCH:  cpu time    0.0010: real time    0.0018
       DOS:  cpu time    0.0020: real time    0.0018
    CHARGE:  cpu time    0.0060: real time    0.0062
    MIXING:  cpu time    0.0010: real time    0.0011
    --------------------------------------------
      LOOP:  cpu time    0.0810: real time    0.0830

 eigenvalue-minimisations  :   184
 total energy-change (2. order) :-0.2078744E-05  (-0.4601129E-07)
 number of electron      17.9999961 magnetization 
 augmentation part       -0.5602061 magnetization 

 Broyden mixing:
  rms(total) = 0.24832E-03    rms(broyden)= 0.66956E-04
  rms(prec ) = 0.79466E-04
  weight for this iteration     100.00
  WARNING: grid for Broyden might be to small

 eigenvalues of (default mixing * dielectric matrix)
  average eigenvalue GAMMA=   2.4261
  8.5690  5.7645  2.7868  2.7868  2.1117  2.1117  1.6041  0.6656  1.1135  1.1135
  1.0703  0.9465  0.8954

 Free energy of the ion-electron system (eV)
  ---------------------------------------------------
  alpha Z        PSCENC =        19.92779736
  Ewald energy   TEWEN  =      1634.51317315
  -Hartree energ DENC   =     -2362.97902754
  -exchange      EXHF   =         0.00000000
  -V(xc)+E(xc)   XCENC  =       -35.17216458
  PAW double counting   =       478.66029229     -402.85107158
  entropy T*S    EENTRO =        -0.00000000
  eigenvalues    EBANDS =      -124.93116826
  atomic energy  EATOM  =       771.06857575
  Solvation  Ediel_sol  =         0.00000000
  ---------------------------------------------------
  free energy    TOTEN  =       -21.76359341 eV

  energy without entropy =      -21.76359341  energy(sigma->0) =      -21.76359341


--------------------------------------------------------------------------------------------------------




--------------------------------------- Iteration      1(  19)  ---------------------------------------


    POTLOK:  cpu time    0.0110: real time    0.0115
    SETDIJ:  cpu time    0.0030: real time    0.0021
    EDDIAG:  cpu time    0.0140: real time    0.0148
  RMM-DIIS:  cpu time    0.0400: real time    0.0392
    ORTHCH:  cpu time    0.0020: real time    0.0018
       DOS:  cpu time    0.0010: real time    0.0017
    CHARGE:  cpu time    0.0060: real time    0.0063
    MIXING:  cpu time    0.0010: real time    0.0011
    --------------------------------------------
      LOOP:  cpu time    0.0780: real time    0.0786

 eigenvalue-minimisations  :   187
 total energy-change (2. order) :-0.2463440E-05  (-0.4978242E-07)
 number of electron      17.9999961 magnetization 
 augmentation part       -0.5602412 magnetization 

 Broyden mixing:
  rms(total) = 0.24150E-03    rms(broyden)= 0.33826E-04
  rms(prec ) = 0.39893E-04
  weight for this iteration     100.00
  WARNING: grid for Broyden might be to small

 eigenvalues of (default mixing * dielectric matrix)
  average eigenvalue GAMMA=   2.4108
  8.7737  5.7555  3.1976  2.7826  2.2874  1.8871  1.8871  1.4620  0.6656  1.1119
  1.1119  0.9518  0.9518  0.9257

 Free energy of the ion-electron system (eV)
  ---------------------------------------------------
  alpha Z        PSCENC =        19.92779736
  Ewald energy   TEWEN  =      1634.51317315
  -Hartree energ DENC   =     -2362.97557954
  -exchange      EXHF   =         0.00000000
  -V(xc)+E(xc)   XCENC  =       -35.17224955
  PAW double counting   =       478.66322842     -402.85410294
  entropy T*S    EENTRO =        -0.00000000
  eigenvalues    EBANDS =      -124.93443853
  atomic energy  EATOM  =       771.06857575
  Solvation  Ediel_sol  =         0.00000000
  ---------------------------------------------------
  free energy    TOTEN  =       -21.76359587 eV

  energy without entropy =      -21.76359587  energy(sigma->0) =      -21.76359587


--------------------------------------------------------------------------------------------------------




--------------------------------------- Iteration      1(  20)  ---------------------------------------


    POTLOK:  cpu time    0.0120: real time    0.0113
    SETDIJ:  cpu time    0.0020: real time    0.0021
    EDDIAG:  cpu time    0.0140: real time    0.0147
  RMM-DIIS:  cpu time    0.0340: real time    0.0333
    ORTHCH:  cpu time    0.0010: real time    0.0018
       DOS:  cpu time    0.0020: real time    0.0017
    --------------------------------------------
      LOOP:  cpu time    0.0650: real time    0.0650

 eigenvalue-minimisations  :    99
 total energy-change (2. order) :-0.6300240E-07  (-0.5279476E-08)
 number of electron      17.9999961 magnetization 
 augmentation part       -0.5602412 magnetization 

 Free energy of the ion-electron system (eV)
  ---------------------------------------------------
  alpha Z        PSCENC =        19.92779736
  Ewald energy   TEWEN  =      1634.51317315
  -Hartree energ DENC   =     -2362.97730416
  -exchange      EXHF   =         0.00000000
  -V(xc)+E(xc)   XCENC  =       -35.17220728
  PAW double counting   =       478.66216352     -402.85303901
  entropy T*S    EENTRO =        -0.00000000
  eigenvalues    EBANDS =      -124.93275526
  atomic energy  EATOM  =       771.06857575
  Solvation  Ediel_sol  =         0.00000000
  ---------------------------------------------------
  free energy    TOTEN  =       -21.76359594 eV

  energy without entropy =      -21.76359594  energy(sigma->0) =      -21.76359594


--------------------------------------------------------------------------------------------------------




 average (electrostatic) potential at core
  the test charge radii are     1.2296  0.9698
  (the norm of the test charge is              1.0000)
       1 -45.4060       2 -93.2584       3 -93.2584
 
 
 
 E-fermi :  -1.1300     XC(G=0):  -4.5045     alpha+bet : -4.2475


 k-point     1 :       0.0000    0.0000    0.0000
  band No.  band energies     occupation 
      1     -15.9883      2.00000
      2     -14.7799      2.00000
      3      -7.4978      2.00000
      4      -4.5364      2.00000
      5      -4.5361      2.00000
      6      -3.6750      2.00000
      7      -3.4288      2.00000
      8      -3.4284      2.00000
      9      -1.9542      2.00000
     10       0.8201      0.00000
     11       0.8209      0.00000
     12       1.0426      0.00000
     13       1.0433      0.00000
     14       3.3993      0.00000

 k-point     2 :       0.1250    0.0000    0.0000
  band No.  band energies     occupation 
      1     -15.7742      2.00000
      2     -14.6774      2.00000
      3      -7.2525      2.00000
      4      -5.0005      2.00000
      5      -4.4833      2.00000
      6      -4.3022      2.00000
      7      -3.7652      2.00000
      8      -2.9971      2.00000
      9      -2.0924      2.00000
     10       0.5374      0.00000
     11       0.6042      0.00000
     12       0.8053      0.00000
     13       1.1744      0.00000
     14       3.7607      0.00000

 k-point     3 :       0.2500    0.0000    0.0000
  band No.  band energies     occupation 
      1     -15.2057      2.00000
      2     -14.4086      2.00000
      3      -6.8870      2.00000
      4      -5.7289      2.00000
      5      -5.4649      2.00000
      6      -4.4017      2.00000
      7      -3.7158      2.00000
      8      -3.2497      2.00000
      9      -2.6610      2.00000
     10       0.2132      0.00000
     11       0.3889      0.00000
     12       0.9315      0.00000
     13       1.7892      0.00000
     14       4.5902      0.00000

 k-point     4 :       0.3750    0.0000    0.0000
  band No.  band energies     occupation 
      1     -14.5307      2.00000
      2     -14.1000      2.00000
      3      -7.3265      2.00000
      4      -6.3341      2.00000
      5      -5.8596      2.00000
      6      -4.9002      2.00000
      7      -3.6587      2.00000
      8      -3.1263      2.00000
      9      -2.8551      2.00000
     10       0.2061      0.00000
     11       0.4859      0.00000
     12       1.6504      0.00000
     13       2.1818      0.00000
     14       5.2035      0.00000

 k-point     5 :       0.5000    0.0000    0.0000
  band No.  band energies     occupation 
      1     -14.2025      2.00000
      2     -13.9567      2.00000
      3      -7.6598      2.00000
      4      -6.7002      2.00000
      5      -5.9854      2.00000
      6      -5.0814      2.00000
      7      -3.7972      2.00000
      8      -2.8995      2.00000
      9      -2.5739      2.00000
     10       0.2276      0.00000
     11       0.7423      0.00000
     12       1.9498      0.00000
     13       2.2978      0.00000
     14       4.2514      0.00000

 k-point     6 :       0.1250    0.1250    0.0000
  band No.  band energies     occupation 
      1     -15.3815      2.00000
      2     -14.4903      2.00000
      3      -6.9055      2.00000
      4      -5.5658      2.00000
      5      -5.0458      2.00000
      6      -4.5795      2.00000
      7      -3.9633      2.00000
      8      -2.8626      2.00000
      9      -2.4653      2.00000
     10       0.1385      0.00000
     11       0.5159      0.00000
     12       0.5280      0.00000
     13       1.7688      0.00000
     14       4.3537      0.00000

 k-point     7 :       0.2500    0.1250    0.0000
  band No.  band energies     occupation 
      1     -14.7481      2.00000
      2     -14.1917      2.00000
      3      -6.9697      2.00000
      4      -5.9922      2.00000
      5      -5.7289      2.00000
      6      -5.0847      2.00000
      7      -3.8641      2.00000
      8      -3.2255      2.00000
      9      -2.7491      2.00000
     10       0.0546      0.00000
     11       0.5014      0.00000
     12       0.9984      0.00000
     13       2.2739      0.00000
     14       5.3571      0.00000

 k-point     8 :       0.3750    0.1250    0.0000
  band No.  band energies     occupation 
      1     -14.2178      2.00000
      2     -13.9478      2.00000
      3      -7.3719      2.00000
      4      -6.7560      2.00000
      5      -5.8579      2.00000
      6      -5.1026      2.00000
      7      -3.8492      2.00000
      8      -3.7069      2.00000
      9      -2.4225      2.00000
     10       0.2466      0.00000
     11       0.7568      0.00000
     12       1.6219      0.00000
     13       2.3080      0.00000
     14       4.7771      0.00000

 k-point     9 :       0.2500    0.2500    0.0000
  band No.  band energies     occupation 
      1     -14.2328      2.00000
      2     -13.9389      2.00000
      3      -7.0116      2.00000
      4      -6.8062      2.00000
      5      -5.5319      2.00000
      6      -5.1513      2.00000
      7      -4.8317      2.00000
      8      -3.5746      2.00000
      9      -2.4523      2.00000
     10       0.1957      0.00000
     11       0.8073      0.00000
     12       1.1230      0.00000
     13       2.5918      0.00000
     14       5.6061      0.00000

 k-point    10 :       0.3750    0.2500    0.0000
  band No.  band energies     occupation 
      1     -13.9978      2.00000
      2     -13.8198      2.00000
      3      -7.1903      2.00000
      4      -6.8418      2.00000
      5      -5.8147      2.00000
      6      -5.1526      2.00000
      7      -4.9245      2.00000
      8      -3.9590      2.00000
      9      -2.0848      2.00000
     10      -0.1305      0.00000
     11       1.1852      0.00000
     12       1.3571      0.00000
     13       2.7357      0.00000
     14       5.0225      0.00000


--------------------------------------------------------------------------------------------------------


 soft charge-density along one line, spin component           1
         0         1         2         3         4         5         6         7         8         9
 total charge-density along one line
 
 pseudopotential strength for first ion, spin component:           1
 -9.593  -0.000  -0.000   0.000  -0.000   0.063   0.000   0.000
 -0.000  -9.593  -0.000  -0.000  -0.000   0.000   0.063   0.000
 -0.000  -0.000  -9.572  -0.000   0.000   0.000   0.000   0.061
  0.000  -0.000  -0.000  -9.593   0.000  -0.000   0.000   0.000
 -0.000  -0.000   0.000   0.000  -9.593   0.000   0.000  -0.000
  0.063   0.000   0.000  -0.000   0.000   0.101  -0.000  -0.000
  0.000   0.063   0.000   0.000   0.000  -0.000   0.101  -0.000
  0.000   0.000   0.061   0.000  -0.000  -0.000  -0.000   0.101
 -0.000   0.000   0.000   0.063  -0.000   0.000   0.000  -0.000
  0.000   0.000  -0.000  -0.000   0.063  -0.000  -0.000   0.000
 -0.000  -0.000  -0.005  -0.000   0.000   0.000   0.000   0.000
  0.000   0.000   0.001   0.000  -0.000  -0.000  -0.000  -0.000
 -0.000   0.000  -0.000  -0.000  -0.007   0.000   0.000   0.000
 -0.000   0.000  -0.000  -0.000  -0.000  -0.000  -0.000   0.000
 -0.007  -0.000   0.000  -0.000  -0.000  -0.000  -0.000  -0.000
  0.000  -0.000   0.000   0.000   0.004  -0.000  -0.000  -0.000
  0.000  -0.000   0.000   0.000   0.000  -0.000   0.000  -0.000
  0.004   0.000  -0.000  -0.000   0.000   0.000  -0.000   0.000
 total augmentation occupancy for first ion, spin component:           1
  0.970  -0.000  -0.000   0.000   0.000   0.662   0.000  -0.000   0.000  -0.000  -0.000   0.000   0.000   0.000  -0.066  -0.000
  0.000   0.911  -0.000   0.000   0.000  -0.000   0.897  -0.000   0.000  -0.000  -0.000  -0.000   0.000  -0.000   0.000  -0.000
 -0.000   0.000   1.035   0.000   0.000  -0.000   0.000   0.567   0.000   0.000   0.111  -0.019  -0.000   0.000   0.000   0.000
  0.000   0.000   0.000   0.911   0.000   0.000   0.000   0.000   0.897   0.000   0.000  -0.000   0.000   0.000   0.000   0.000
 -0.000   0.000   0.000  -0.000   0.970  -0.000  -0.000   0.000   0.000   0.662   0.000  -0.000  -0.066   0.000  -0.000   0.007
  0.662   0.000  -0.000   0.000  -0.000   0.768   0.000  -0.000   0.000  -0.000  -0.000  -0.000   0.000   0.000  -0.143  -0.000
  0.000   0.897   0.000   0.000  -0.000   0.000   1.204   0.000   0.000   0.000   0.000   0.000   0.000   0.000   0.000   0.000
 -0.000  -0.000   0.567   0.000   0.000  -0.000  -0.000   0.551   0.000   0.000   0.066  -0.023  -0.000   0.000   0.000   0.000
  0.000   0.000   0.000   0.897   0.000  -0.000   0.000  -0.000   1.204   0.000   0.000   0.000   0.000   0.000   0.000  -0.000
 -0.000   0.000   0.000  -0.000   0.662  -0.000   0.000   0.000   0.000   0.768   0.000  -0.000  -0.143   0.000  -0.000   0.024
 -0.000  -0.000   0.111   0.000   0.000  -0.000   0.000   0.066   0.000   0.000   1.210  -0.183   0.000   0.000   0.000   0.000
  0.000   0.000  -0.019   0.000  -0.000  -0.000  -0.000  -0.023   0.000  -0.000  -0.183   0.041  -0.000  -0.000   0.000   0.000
  0.000  -0.000  -0.000   0.000  -0.066   0.000  -0.000  -0.000   0.000  -0.143  -0.000   0.000   0.217   0.000   0.000  -0.033
  0.000   0.000   0.000   0.000   0.000   0.000   0.000   0.000  -0.000  -0.000  -0.000  -0.000   0.000   0.265   0.000   0.000
 -0.066   0.000   0.000   0.000  -0.000  -0.143   0.000   0.000   0.000  -0.000   0.000  -0.000   0.000   0.000   0.217  -0.000
 -0.000  -0.000   0.000   0.000   0.007  -0.000  -0.000   0.000   0.000   0.024   0.000   0.000  -0.033  -0.000  -0.000   0.005
  0.000   0.000   0.000   0.000   0.000   0.000   0.000   0.000  -0.000   0.000   0.000   0.000  -0.000  -0.039   0.000   0.000
  0.007  -0.000  -0.000   0.000   0.000   0.024   0.000  -0.000   0.000   0.000  -0.000   0.000  -0.000   0.000  -0.033   0.000


------------------------ aborting loop because EDIFF is reached ----------------------------------------


 


 total charge     
 
# of ion       s       p       d       tot
------------------------------------------
    1        0.414   0.593   4.443   5.450
    2        1.366   2.356   0.000   3.722
    3        1.366   2.356   0.000   3.722
--------------------------------------------------
tot          3.145   5.305   4.443  12.894
 
    CHARGE:  cpu time    0.0060: real time    0.0063
    FORLOC:  cpu time    0.0010: real time    0.0010
    FORNL :  cpu time    0.0280: real time    0.0280
    STRESS:  cpu time    0.0850: real time    0.0849
    FORCOR:  cpu time    0.0130: real time    0.0123
    FORHAR:  cpu time    0.0020: real time    0.0027
    MIXING:  cpu time    0.0010: real time    0.0012
    OFIELD:  cpu time    0.0000: real time    0.0000

  DFT-D2 method for vdW energy calculation
  -------------------------------------------------------------------

  Parameters of vdW forcefield:
         C6(Jnm^6/mol)     R0(A)
   -----------------------------
   Mo      24.670          1.639
   S        5.570          1.683

  IVDW =   1
  VDW_RADIUS =    50.000 A
  VDW_S6 =     0.750
  VDW_SR =     1.000
  VDW_D =    20.000
  LVDW_EWALD = F

  Number of pair interactions contributing to vdW energy:   20856
  Edisp (eV):   -0.59248
    FORVDW:  cpu time    0.0160: real time    0.0192

  FORCE on cell =-STRESS in cart. coord.  units (eV):
  Direction    XX          YY          ZZ          XY          YZ          ZX
  --------------------------------------------------------------------------------------
  Alpha Z    19.92780    19.92780    19.92780
  Ewald    2201.37961  2201.38005 -2768.24632     0.00019     0.00000     0.00012
  Hartree  2324.73739  2324.73740 -2286.49632     0.00002     0.00000    -0.00000
  E(xc)     -70.33509   -70.33506   -70.93924     0.00002    -0.00002    -0.00001
  Local   -4814.96220 -4814.96377  4759.88294    -0.00129    -0.00029    -0.00022
  n-local   127.31296   125.93138   131.86913    -0.26373     0.00002     0.00017
  augment   -25.66863   -25.66818   -26.76916     0.00039    -0.00001    -0.00001
  Kinetic   236.13968   238.93242   240.01674    -7.43226     0.00005     0.00004
  Fock        0.00000     0.00000     0.00000     0.00000     0.00000     0.00000
  vdW         0.15887     0.15887    -0.14060     0.00000     0.00000    -0.00000
  -------------------------------------------------------------------------------------
  Total      -0.60435    -0.60435    -0.89503     0.00000     0.00000     0.00000
  in kB      -6.50811    -6.50811    -9.63835     0.00000     0.00000     0.00000
  external pressure =       -7.55 kB  Pullay stress =        0.00 kB


 VOLUME and BASIS-vectors are now :
 -----------------------------------------------------------------------------
  energy-cutoff  :      250.00
  volume of cell :      148.78
      direct lattice vectors                 reciprocal lattice vectors
     3.190315730  0.000000000  0.000000000     0.313448600  0.180969634  0.000000000
    -1.595157865  2.762894468  0.000000000     0.000000000  0.361939267  0.000000000
     0.000000000  0.000000000 16.879004300     0.000000000  0.000000000  0.059245201

  length of vectors
     3.190315730  3.190315730 16.879004300     0.361939267  0.361939267  0.059245201


 FORCES acting on ions
    electron-ion (+dipol)            ewald-force                    non-local-force                 convergence-correction
 -----------------------------------------------------------------------------------------------
   -.116E-04 -.535E-06 -.572E-05   0.931E-04 -.108E-03 0.145E-06   0.139E-16 0.000E+00 0.325E-18   0.756E-09 -.113E-08 -.773E-07
   -.121E-02 0.684E-05 0.502E+03   -.864E-04 0.538E-04 -.507E+03   0.382E-16 0.000E+00 0.496E+01   -.257E-08 0.149E-08 -.593E-03
   0.111E-02 0.104E-02 -.502E+03   -.674E-05 0.538E-04 0.507E+03   0.269E-16 0.173E-17 -.496E+01   0.188E-08 0.177E-08 0.592E-03
 -----------------------------------------------------------------------------------------------
   -.113E-03 0.105E-02 0.254E-04   -.107E-13 -.390E-14 0.000E+00   0.789E-16 0.173E-17 0.888E-15   0.715E-10 0.213E-08 -.222E-06
 
 
 POSITION                                       TOTAL-FORCE (eV/Angst)
 -----------------------------------------------------------------------------------
     -0.00000      1.84193      3.71975         0.000000      0.000000      0.000000
      1.59516      0.92096      2.15487        -0.000000      0.000000      0.103007
      1.59516      0.92096      5.28464        -0.000000      0.000000     -0.103007
 -----------------------------------------------------------------------------------
    total drift:                               -0.000113      0.001049      0.000025


--------------------------------------------------------------------------------------------------------



  FREE ENERGIE OF THE ION-ELECTRON SYSTEM (eV)
  ---------------------------------------------------
  free  energy   TOTEN  =       -22.35607609 eV

  energy  without entropy=      -22.35607609  energy(sigma->0) =      -22.35607609
 


--------------------------------------------------------------------------------------------------------


    POTLOK:  cpu time    0.0140: real time    0.0133


--------------------------------------------------------------------------------------------------------


     LOOP+:  cpu time    2.1117: real time    2.5267
    4ORBIT:  cpu time    0.0000: real time    0.0000
 


 total charge     
 
# of ion       s       p       d       tot
------------------------------------------
    1        0.414   0.593   4.443   5.450
    2        1.366   2.356   0.000   3.722
    3        1.366   2.356   0.000   3.722
--------------------------------------------------
tot          3.145   5.305   4.443  12.894
 

 total amount of memory used by VASP MPI-rank0    33367. kBytes
=======================================================================

   base      :      30000. kBytes
   nonlr-proj:        375. kBytes
   fftplans  :        832. kBytes
   grid      :       1343. kBytes
   one-center:         31. kBytes
   wavefun   :        786. kBytes
 
  
  
 General timing and accounting informations for this job:
 ========================================================
  
                  Total CPU time used (sec):        3.119
                            User time (sec):        3.042
                          System time (sec):        0.077
                         Elapsed time (sec):        5.467
  
                   Maximum memory used (kb):       24876.
                   Average memory used (kb):           0.
  
                          Minor page faults:         6274
                          Major page faults:          194
                 Voluntary context switches:         2673
