PROCAR lm decomposed
# of k-points:   10         # of bands:   14         # of ions:    3

 k-point     1 :    0.00000000 0.00000000 0.00000000     weight = 0.01562500

band     1 # energy  -15.98830567 # occ.  2.00000000
 
ion      s     py     pz     px    dxy    dyz    dz2    dxz  x2-y2    tot
    1  0.130  0.000  0.000  0.000  0.000  0.000  0.000  0.000  0.000  0.130
    2  0.276  0.000  0.005  0.000  0.000  0.000  0.000  0.000  0.000  0.281
    3  0.276  0.000  0.005  0.000  0.000  0.000  0.000  0.000  0.000  0.281
tot    0.682  0.000  0.010  0.000  0.000  0.000  0.000  0.000  0.000  0.693
 
band     2 # energy  -14.77994427 # occ.  2.00000000
 
ion      s     py     pz     px    dxy    dyz    dz2    dxz  x2-y2    tot
    1  0.000  0.000  0.059  0.000  0.000  0.000  0.000  0.000  0.000  0.059
    2  0.316  0.000  0.000  0.000  0.000  0.000  0.000  0.000  0.000  0.316
    3  0.316  0.000  0.000  0.000  0.000  0.000  0.000  0.000  0.000  0.316
tot    0.631  0.000  0.060  0.000  0.000  0.000  0.000  0.000  0.000  0.691
 
band     3 # energy   -7.49776813 # occ.  2.00000000
 
ion      s     py     pz     px    dxy    dyz    dz2    dxz  x2-y2    tot
    1  0.130  0.000  0.000  0.000  0.000  0.000  0.207  0.000  0.000  0.337
    2  0.018  0.000  0.126  0.000  0.000  0.000  0.000  0.000  0.000  0.144
    3  0.018  0.000  0.126  0.000  0.000  0.000  0.000  0.000  0.000  0.144
tot    0.166  0.000  0.253  0.000  0.000  0.000  0.207  0.000  0.000  0.626
 
band     4 # energy   -4.53639733 # occ.  2.00000000
 
ion      s     py     pz     px    dxy    dyz    dz2    dxz  x2-y2    tot
    1  0.000  0.002  0.000  0.005  0.458  0.000  0.000  0.000  0.148  0.613
    2  0.000  0.028  0.000  0.087  0.000  0.000  0.000  0.000  0.000  0.115
    3  0.000  0.028  0.000  0.087  0.000  0.000  0.000  0.000  0.000  0.115
tot    0.000  0.058  0.000  0.178  0.458  0.000  0.000  0.000  0.148  0.842
 
band     5 # energy   -4.53613057 # occ.  2.00000000
 
ion      s     py     pz     px    dxy    dyz    dz2    dxz  x2-y2    tot
    1  0.000  0.005  0.000  0.002  0.148  0.000  0.000  0.000  0.458  0.613
    2  0.000  0.087  0.000  0.028  0.000  0.000  0.000  0.000  0.000  0.115
    3  0.000  0.087  0.000  0.028  0.000  0.000  0.000  0.000  0.000  0.115
tot    0.000  0.178  0.000  0.058  0.148  0.000  0.000  0.000  0.458  0.842
 
band     6 # energy   -3.67502888 # occ.  2.00000000
 
ion      s     py     pz     px    dxy    dyz    dz2    dxz  x2-y2    tot
    1  0.000  0.000  0.056  0.000  0.000  0.000  0.000  0.000  0.000  0.056
    2  0.000  0.000  0.250  0.000  0.000  0.000  0.000  0.000  0.000  0.250
    3  0.000  0.000  0.250  0.000  0.000  0.000  0.000  0.000  0.000  0.250
tot    0.001  0.000  0.556  0.000  0.000  0.000  0.000  0.000  0.000  0.556
 
band     7 # energy   -3.42884217 # occ.  2.00000000
 
ion      s     py     pz     px    dxy    dyz    dz2    dxz  x2-y2    tot
    1  0.000  0.000  0.000  0.000  0.000  0.146  0.000  0.406  0.000  0.551
    2  0.000  0.040  0.000  0.113  0.000  0.000  0.000  0.000  0.000  0.153
    3  0.000  0.040  0.000  0.113  0.000  0.000  0.000  0.000  0.000  0.153
tot    0.000  0.081  0.000  0.225  0.000  0.146  0.000  0.406  0.000  0.857
 
band     8 # energy   -3.42837544 # occ.  2.00000000
 
ion      s     py     pz     px    dxy    dyz    dz2    dxz  x2-y2    tot
    1  0.000  0.000  0.000  0.000  0.000  0.406  0.000  0.146  0.000  0.551
    2  0.000  0.113  0.000  0.040  0.000  0.000  0.000  0.000  0.000  0.153
    3  0.000  0.113  0.000  0.040  0.000  0.000  0.000  0.000  0.000  0.153
tot    0.000  0.225  0.000  0.081  0.000  0.406  0.000  0.146  0.000  0.858
 
band     9 # energy   -1.95421465 # occ.  1.99999999
 
ion      s     py     pz     px    dxy    dyz    dz2    dxz  x2-y2    tot
    1  0.014  0.000  0.000  0.000  0.000  0.000  0.609  0.000  0.000  0.623
    2  0.002  0.000  0.070  0.000  0.000  0.000  0.000  0.000  0.000  0.072
    3  0.002  0.000  0.070  0.000  0.000  0.000  0.000  0.000  0.000  0.072
tot    0.019  0.000  0.139  0.000  0.000  0.000  0.609  0.000  0.000  0.768
 
band    10 # energy    0.82010403 # occ.  0.00000000
 
ion      s     py     pz     px    dxy    dyz    dz2    dxz  x2-y2    tot
    1  0.000  0.000  0.000  0.000  0.000  0.087  0.000  0.272  0.000  0.359
    2  0.000  0.046  0.000  0.143  0.000  0.000  0.000  0.000  0.000  0.189
    3  0.000  0.046  0.000  0.143  0.000  0.000  0.000  0.000  0.000  0.189
tot    0.000  0.092  0.000  0.287  0.000  0.087  0.000  0.272  0.000  0.737
 
band    11 # energy    0.82088422 # occ.  0.00000000
 
ion      s     py     pz     px    dxy    dyz    dz2    dxz  x2-y2    tot
    1  0.000  0.000  0.000  0.000  0.000  0.272  0.000  0.087  0.000  0.358
    2  0.000  0.143  0.000  0.046  0.000  0.000  0.000  0.000  0.000  0.189
    3  0.000  0.143  0.000  0.046  0.000  0.000  0.000  0.000  0.000  0.189
tot    0.000  0.287  0.000  0.092  0.000  0.272  0.000  0.087  0.000  0.737
 
band    12 # energy    1.04262229 # occ.  0.00000000
 
ion      s     py     pz     px    dxy    dyz    dz2    dxz  x2-y2    tot
    1  0.000  0.005  0.000  0.014  0.225  0.000  0.000  0.000  0.077  0.321
    2  0.000  0.059  0.000  0.174  0.000  0.000  0.000  0.000  0.000  0.233
    3  0.000  0.059  0.000  0.174  0.000  0.000  0.000  0.000  0.000  0.233
tot    0.000  0.123  0.000  0.362  0.225  0.000  0.000  0.000  0.077  0.786
 
band    13 # energy    1.04332571 # occ.  0.00000000
 
ion      s     py     pz     px    dxy    dyz    dz2    dxz  x2-y2    tot
    1  0.000  0.014  0.000  0.005  0.076  0.000  0.000  0.000  0.225  0.320
    2  0.000  0.174  0.000  0.059  0.000  0.000  0.000  0.000  0.000  0.233
    3  0.000  0.174  0.000  0.059  0.000  0.000  0.000  0.000  0.000  0.233
tot    0.000  0.362  0.000  0.123  0.076  0.000  0.000  0.000  0.225  0.786
 
band    14 # energy    3.39926128 # occ.  0.00000000
 
ion      s     py     pz     px    dxy    dyz    dz2    dxz  x2-y2    tot
    1  0.029  0.000  0.000  0.000  0.000  0.000  0.020  0.000  0.000  0.049
    2  0.022  0.000  0.003  0.000  0.000  0.000  0.000  0.000  0.000  0.024
    3  0.022  0.000  0.003  0.000  0.000  0.000  0.000  0.000  0.000  0.024
tot    0.072  0.000  0.005  0.000  0.000  0.000  0.020  0.000  0.000  0.097
 

 k-point     2 :    0.12500000 0.00000000 0.00000000     weight = 0.09375000

band     1 # energy  -15.77420778 # occ.  2.00000000
 
ion      s     py     pz     px    dxy    dyz    dz2    dxz  x2-y2    tot
    1  0.118  0.002  0.000  0.005  0.002  0.000  0.000  0.000  0.001  0.128
    2  0.280  0.000  0.005  0.001  0.000  0.000  0.000  0.000  0.000  0.286
    3  0.280  0.000  0.005  0.001  0.000  0.000  0.000  0.000  0.000  0.286
tot    0.678  0.002  0.010  0.006  0.002  0.000  0.000  0.000  0.001  0.699
 
band     2 # energy  -14.67740697 # occ.  2.00000000
 
ion      s     py     pz     px    dxy    dyz    dz2    dxz  x2-y2    tot
    1  0.000  0.000  0.053  0.000  0.000  0.003  0.000  0.009  0.000  0.066
    2  0.317  0.000  0.001  0.000  0.000  0.000  0.000  0.000  0.000  0.318
    3  0.317  0.000  0.001  0.000  0.000  0.000  0.000  0.000  0.000  0.318
tot    0.634  0.000  0.055  0.001  0.000  0.003  0.000  0.009  0.000  0.702
 
band     3 # energy   -7.25250884 # occ.  2.00000000
 
ion      s     py     pz     px    dxy    dyz    dz2    dxz  x2-y2    tot
    1  0.108  0.003  0.000  0.009  0.014  0.000  0.194  0.000  0.005  0.333
    2  0.016  0.001  0.131  0.002  0.000  0.000  0.000  0.000  0.000  0.149
    3  0.016  0.001  0.131  0.002  0.000  0.000  0.000  0.000  0.000  0.149
tot    0.139  0.004  0.263  0.012  0.014  0.000  0.194  0.000  0.005  0.631
 
band     4 # energy   -5.00046619 # occ.  2.00000000
 
ion      s     py     pz     px    dxy    dyz    dz2    dxz  x2-y2    tot
    1  0.033  0.002  0.000  0.007  0.371  0.000  0.002  0.000  0.123  0.538
    2  0.008  0.029  0.001  0.088  0.000  0.000  0.000  0.000  0.000  0.126
    3  0.008  0.029  0.001  0.088  0.000  0.000  0.000  0.000  0.000  0.126
tot    0.049  0.061  0.002  0.184  0.371  0.000  0.002  0.000  0.123  0.791
 
band     5 # energy   -4.48333285 # occ.  2.00000000
 
ion      s     py     pz     px    dxy    dyz    dz2    dxz  x2-y2    tot
    1  0.000  0.000  0.003  0.000  0.000  0.085  0.000  0.255  0.000  0.343
    2  0.000  0.020  0.107  0.059  0.000  0.000  0.000  0.000  0.000  0.186
    3  0.000  0.020  0.107  0.059  0.000  0.000  0.000  0.000  0.000  0.186
tot    0.001  0.039  0.217  0.118  0.000  0.085  0.000  0.255  0.000  0.714
 
band     6 # energy   -4.30224495 # occ.  2.00000000
 
ion      s     py     pz     px    dxy    dyz    dz2    dxz  x2-y2    tot
    1  0.000  0.011  0.000  0.004  0.141  0.000  0.000  0.000  0.423  0.578
    2  0.000  0.095  0.000  0.032  0.000  0.000  0.000  0.000  0.000  0.127
    3  0.000  0.095  0.000  0.032  0.000  0.000  0.000  0.000  0.000  0.127
tot    0.000  0.201  0.000  0.067  0.141  0.000  0.000  0.000  0.423  0.832
 
band     7 # energy   -3.76523460 # occ.  2.00000000
 
ion      s     py     pz     px    dxy    dyz    dz2    dxz  x2-y2    tot
    1  0.000  0.000  0.000  0.000  0.000  0.397  0.000  0.132  0.000  0.529
    2  0.000  0.117  0.000  0.039  0.000  0.000  0.000  0.000  0.000  0.157
    3  0.000  0.117  0.000  0.039  0.000  0.000  0.000  0.000  0.000  0.156
tot    0.000  0.235  0.000  0.078  0.000  0.397  0.000  0.132  0.000  0.842
 
band     8 # energy   -2.99714121 # occ.  2.00000000
 
ion      s     py     pz     px    dxy    dyz    dz2    dxz  x2-y2    tot
    1  0.000  0.000  0.064  0.000  0.000  0.024  0.000  0.071  0.000  0.159
    2  0.001  0.027  0.140  0.081  0.000  0.000  0.000  0.000  0.000  0.250
    3  0.001  0.027  0.140  0.081  0.000  0.000  0.000  0.000  0.000  0.250
tot    0.002  0.054  0.345  0.163  0.000  0.024  0.000  0.071  0.000  0.658
 
band     9 # energy   -2.09243895 # occ.  2.00000000
 
ion      s     py     pz     px    dxy    dyz    dz2    dxz  x2-y2    tot
    1  0.016  0.000  0.000  0.001  0.033  0.000  0.571  0.000  0.011  0.633
    2  0.005  0.003  0.061  0.010  0.000  0.000  0.000  0.000  0.000  0.079
    3  0.005  0.003  0.061  0.010  0.000  0.000  0.000  0.000  0.000  0.079
tot    0.026  0.007  0.123  0.021  0.033  0.000  0.571  0.000  0.011  0.791
 
band    10 # energy    0.53736574 # occ.  0.00000000
 
ion      s     py     pz     px    dxy    dyz    dz2    dxz  x2-y2    tot
    1  0.002  0.003  0.000  0.010  0.236  0.000  0.051  0.000  0.078  0.380
    2  0.009  0.040  0.006  0.120  0.000  0.000  0.000  0.000  0.000  0.175
    3  0.009  0.040  0.006  0.120  0.000  0.000  0.000  0.000  0.000  0.175
tot    0.019  0.083  0.012  0.250  0.236  0.000  0.051  0.000  0.078  0.730
 
band    11 # energy    0.60419502 # occ.  0.00000000
 
ion      s     py     pz     px    dxy    dyz    dz2    dxz  x2-y2    tot
    1  0.000  0.000  0.002  0.000  0.000  0.114  0.000  0.343  0.000  0.459
    2  0.017  0.028  0.006  0.085  0.000  0.000  0.000  0.000  0.000  0.137
    3  0.017  0.028  0.006  0.085  0.000  0.000  0.000  0.000  0.000  0.137
tot    0.035  0.056  0.014  0.170  0.000  0.114  0.000  0.343  0.000  0.732
 
band    12 # energy    0.80530766 # occ.  0.00000000
 
ion      s     py     pz     px    dxy    dyz    dz2    dxz  x2-y2    tot
    1  0.000  0.014  0.000  0.005  0.086  0.000  0.000  0.000  0.259  0.364
    2  0.000  0.157  0.000  0.052  0.000  0.000  0.000  0.000  0.000  0.209
    3  0.000  0.157  0.000  0.052  0.000  0.000  0.000  0.000  0.000  0.209
tot    0.000  0.328  0.000  0.109  0.086  0.000  0.000  0.000  0.259  0.781
 
band    13 # energy    1.17439984 # occ.  0.00000000
 
ion      s     py     pz     px    dxy    dyz    dz2    dxz  x2-y2    tot
    1  0.000  0.000  0.000  0.000  0.000  0.295  0.000  0.098  0.000  0.394
    2  0.000  0.138  0.000  0.046  0.000  0.000  0.000  0.000  0.000  0.184
    3  0.000  0.138  0.000  0.046  0.000  0.000  0.000  0.000  0.000  0.184
tot    0.000  0.277  0.000  0.092  0.000  0.295  0.000  0.098  0.000  0.763
 
band    14 # energy    3.76072450 # occ.  0.00000000
 
ion      s     py     pz     px    dxy    dyz    dz2    dxz  x2-y2    tot
    1  0.013  0.001  0.000  0.002  0.002  0.000  0.021  0.000  0.001  0.040
    2  0.010  0.002  0.005  0.005  0.000  0.000  0.000  0.000  0.000  0.021
    3  0.010  0.002  0.005  0.005  0.000  0.000  0.000  0.000  0.000  0.021
tot    0.033  0.004  0.009  0.012  0.002  0.000  0.021  0.000  0.001  0.083
 

 k-point     3 :    0.25000000 0.00000000 0.00000000     weight = 0.09375000

band     1 # energy  -15.20567654 # occ.  2.00000000
 
ion      s     py     pz     px    dxy    dyz    dz2    dxz  x2-y2    tot
    1  0.086  0.006  0.000  0.017  0.010  0.000  0.001  0.000  0.003  0.122
    2  0.291  0.001  0.005  0.002  0.000  0.000  0.000  0.000  0.000  0.298
    3  0.291  0.001  0.005  0.002  0.000  0.000  0.000  0.000  0.000  0.298
tot    0.668  0.007  0.010  0.020  0.010  0.000  0.001  0.000  0.003  0.719
 
band     2 # energy  -14.40856295 # occ.  2.00000000
 
ion      s     py     pz     px    dxy    dyz    dz2    dxz  x2-y2    tot
    1  0.000  0.000  0.037  0.000  0.000  0.012  0.000  0.036  0.000  0.086
    2  0.321  0.000  0.001  0.001  0.000  0.000  0.000  0.000  0.000  0.323
    3  0.321  0.000  0.001  0.001  0.000  0.000  0.000  0.000  0.000  0.323
tot    0.642  0.001  0.040  0.002  0.000  0.012  0.000  0.036  0.000  0.732
 
band     3 # energy   -6.88697339 # occ.  2.00000000
 
ion      s     py     pz     px    dxy    dyz    dz2    dxz  x2-y2    tot
    1  0.029  0.006  0.000  0.018  0.147  0.000  0.122  0.000  0.049  0.370
    2  0.005  0.009  0.106  0.028  0.000  0.000  0.000  0.000  0.000  0.150
    3  0.005  0.009  0.106  0.028  0.000  0.000  0.000  0.000  0.000  0.150
tot    0.039  0.025  0.213  0.075  0.147  0.000  0.122  0.000  0.049  0.670
 
band     4 # energy   -5.72887533 # occ.  2.00000000
 
ion      s     py     pz     px    dxy    dyz    dz2    dxz  x2-y2    tot
    1  0.120  0.009  0.000  0.027  0.100  0.000  0.041  0.000  0.033  0.331
    2  0.026  0.026  0.041  0.077  0.000  0.000  0.000  0.000  0.000  0.170
    3  0.026  0.026  0.041  0.077  0.000  0.000  0.000  0.000  0.000  0.170
tot    0.173  0.061  0.082  0.182  0.100  0.000  0.041  0.000  0.033  0.671
 
band     5 # energy   -5.46493946 # occ.  2.00000000
 
ion      s     py     pz     px    dxy    dyz    dz2    dxz  x2-y2    tot
    1  0.000  0.000  0.010  0.000  0.000  0.079  0.000  0.236  0.000  0.325
    2  0.004  0.032  0.055  0.095  0.000  0.000  0.000  0.000  0.000  0.186
    3  0.004  0.032  0.055  0.095  0.000  0.000  0.000  0.000  0.000  0.186
tot    0.008  0.064  0.119  0.191  0.000  0.079  0.000  0.236  0.000  0.696
 
band     6 # energy   -4.40170305 # occ.  2.00000000
 
ion      s     py     pz     px    dxy    dyz    dz2    dxz  x2-y2    tot
    1  0.000  0.000  0.000  0.000  0.000  0.377  0.000  0.126  0.000  0.502
    2  0.000  0.121  0.000  0.040  0.000  0.000  0.000  0.000  0.000  0.161
    3  0.000  0.121  0.000  0.040  0.000  0.000  0.000  0.000  0.000  0.161
tot    0.000  0.242  0.000  0.081  0.000  0.377  0.000  0.126  0.000  0.825
 
band     7 # energy   -3.71582449 # occ.  2.00000000
 
ion      s     py     pz     px    dxy    dyz    dz2    dxz  x2-y2    tot
    1  0.000  0.026  0.000  0.009  0.107  0.000  0.000  0.000  0.320  0.462
    2  0.000  0.126  0.000  0.042  0.000  0.000  0.000  0.000  0.000  0.168
    3  0.000  0.126  0.000  0.042  0.000  0.000  0.000  0.000  0.000  0.168
tot    0.000  0.279  0.000  0.093  0.107  0.000  0.000  0.000  0.320  0.799
 
band     8 # energy   -3.24968758 # occ.  2.00000000
 
ion      s     py     pz     px    dxy    dyz    dz2    dxz  x2-y2    tot
    1  0.000  0.000  0.067  0.000  0.000  0.003  0.000  0.010  0.000  0.080
    2  0.009  0.022  0.172  0.067  0.000  0.000  0.000  0.000  0.000  0.270
    3  0.009  0.022  0.172  0.067  0.000  0.000  0.000  0.000  0.000  0.270
tot    0.017  0.045  0.411  0.134  0.000  0.003  0.000  0.010  0.000  0.620
 
band     9 # energy   -2.66100823 # occ.  2.00000000
 
ion      s     py     pz     px    dxy    dyz    dz2    dxz  x2-y2    tot
    1  0.017  0.002  0.000  0.006  0.162  0.000  0.411  0.000  0.054  0.652
    2  0.008  0.007  0.038  0.020  0.000  0.000  0.000  0.000  0.000  0.073
    3  0.008  0.007  0.038  0.020  0.000  0.000  0.000  0.000  0.000  0.073
tot    0.032  0.016  0.077  0.047  0.162  0.000  0.411  0.000  0.054  0.798
 
band    10 # energy    0.21317855 # occ.  0.00000000
 
ion      s     py     pz     px    dxy    dyz    dz2    dxz  x2-y2    tot
    1  0.004  0.001  0.000  0.004  0.195  0.000  0.259  0.000  0.065  0.529
    2  0.006  0.018  0.020  0.055  0.000  0.000  0.000  0.000  0.000  0.099
    3  0.006  0.018  0.020  0.055  0.000  0.000  0.000  0.000  0.000  0.099
tot    0.015  0.038  0.041  0.114  0.195  0.000  0.259  0.000  0.065  0.726
 
band    11 # energy    0.38888861 # occ.  0.00000000
 
ion      s     py     pz     px    dxy    dyz    dz2    dxz  x2-y2    tot
    1  0.000  0.012  0.000  0.004  0.123  0.000  0.000  0.000  0.370  0.509
    2  0.000  0.110  0.000  0.037  0.000  0.000  0.000  0.000  0.000  0.147
    3  0.000  0.110  0.000  0.037  0.000  0.000  0.000  0.000  0.000  0.147
tot    0.000  0.233  0.000  0.077  0.123  0.000  0.000  0.000  0.370  0.803
 
band    12 # energy    0.93152362 # occ.  0.00000000
 
ion      s     py     pz     px    dxy    dyz    dz2    dxz  x2-y2    tot
    1  0.000  0.000  0.014  0.000  0.000  0.130  0.000  0.389  0.000  0.532
    2  0.028  0.009  0.036  0.026  0.000  0.000  0.000  0.000  0.000  0.099
    3  0.028  0.009  0.036  0.026  0.000  0.000  0.000  0.000  0.000  0.099
tot    0.055  0.018  0.086  0.053  0.000  0.130  0.000  0.389  0.000  0.729
 
band    13 # energy    1.78923637 # occ.  0.00000000
 
ion      s     py     pz     px    dxy    dyz    dz2    dxz  x2-y2    tot
    1  0.000  0.000  0.000  0.000  0.000  0.335  0.000  0.112  0.000  0.446
    2  0.000  0.131  0.000  0.043  0.000  0.000  0.000  0.000  0.000  0.174
    3  0.000  0.131  0.000  0.043  0.000  0.000  0.000  0.000  0.000  0.174
tot    0.000  0.261  0.000  0.087  0.000  0.335  0.000  0.112  0.000  0.794
 
band    14 # energy    4.59020758 # occ.  0.00000000
 
ion      s     py     pz     px    dxy    dyz    dz2    dxz  x2-y2    tot
    1  0.010  0.002  0.000  0.006  0.005  0.000  0.019  0.000  0.002  0.044
    2  0.009  0.001  0.004  0.004  0.000  0.000  0.000  0.000  0.000  0.019
    3  0.009  0.001  0.004  0.004  0.000  0.000  0.000  0.000  0.000  0.019
tot    0.029  0.005  0.008  0.015  0.005  0.000  0.019  0.000  0.002  0.083
 

 k-point     4 :    0.37500000 0.00000000 0.00000000     weight = 0.09375000

band     1 # energy  -14.53072161 # occ.  2.00000000
 
ion      s     py     pz     px    dxy    dyz    dz2    dxz  x2-y2    tot
    1  0.043  0.010  0.000  0.030  0.026  0.000  0.001  0.000  0.009  0.119
    2  0.309  0.000  0.006  0.001  0.000  0.000  0.000  0.000  0.000  0.316
    3  0.309  0.000  0.006  0.001  0.000  0.000  0.000  0.000  0.000  0.316
tot    0.661  0.011  0.011  0.033  0.026  0.000  0.001  0.000  0.009  0.751
 
band     2 # energy  -14.09998268 # occ.  2.00000000
 
ion      s     py     pz     px    dxy    dyz    dz2    dxz  x2-y2    tot
    1  0.000  0.000  0.017  0.000  0.000  0.023  0.000  0.070  0.000  0.110
    2  0.327  0.000  0.002  0.001  0.000  0.000  0.000  0.000  0.000  0.330
    3  0.327  0.000  0.002  0.001  0.000  0.000  0.000  0.000  0.000  0.330
tot    0.653  0.001  0.021  0.002  0.000  0.023  0.000  0.070  0.000  0.770
 
band     3 # energy   -7.32651184 # occ.  2.00000000
 
ion      s     py     pz     px    dxy    dyz    dz2    dxz  x2-y2    tot
    1  0.074  0.005  0.000  0.014  0.150  0.000  0.033  0.000  0.050  0.327
    2  0.006  0.032  0.023  0.096  0.000  0.000  0.000  0.000  0.000  0.157
    3  0.006  0.032  0.023  0.096  0.000  0.000  0.000  0.000  0.000  0.157
tot    0.087  0.069  0.045  0.206  0.150  0.000  0.033  0.000  0.050  0.640
 
band     4 # energy   -6.33406904 # occ.  2.00000000
 
ion      s     py     pz     px    dxy    dyz    dz2    dxz  x2-y2    tot
    1  0.000  0.000  0.045  0.000  0.000  0.049  0.000  0.147  0.000  0.241
    2  0.009  0.041  0.021  0.123  0.000  0.000  0.000  0.000  0.000  0.194
    3  0.009  0.041  0.021  0.123  0.000  0.000  0.000  0.000  0.000  0.194
tot    0.018  0.082  0.087  0.247  0.000  0.049  0.000  0.147  0.000  0.630
 
band     5 # energy   -5.85958861 # occ.  2.00000000
 
ion      s     py     pz     px    dxy    dyz    dz2    dxz  x2-y2    tot
    1  0.052  0.013  0.000  0.039  0.059  0.000  0.106  0.000  0.020  0.289
    2  0.025  0.010  0.123  0.030  0.000  0.000  0.000  0.000  0.000  0.187
    3  0.025  0.010  0.123  0.030  0.000  0.000  0.000  0.000  0.000  0.187
tot    0.101  0.033  0.246  0.098  0.059  0.000  0.106  0.000  0.020  0.662
 
band     6 # energy   -4.90020433 # occ.  2.00000000
 
ion      s     py     pz     px    dxy    dyz    dz2    dxz  x2-y2    tot
    1  0.000  0.000  0.000  0.000  0.000  0.367  0.000  0.122  0.000  0.489
    2  0.000  0.123  0.000  0.041  0.000  0.000  0.000  0.000  0.000  0.164
    3  0.000  0.123  0.000  0.041  0.000  0.000  0.000  0.000  0.000  0.164
tot    0.000  0.246  0.000  0.082  0.000  0.367  0.000  0.122  0.000  0.817
 
band     7 # energy   -3.65874955 # occ.  2.00000000
 
ion      s     py     pz     px    dxy    dyz    dz2    dxz  x2-y2    tot
    1  0.000  0.000  0.037  0.000  0.000  0.031  0.000  0.094  0.000  0.163
    2  0.011  0.012  0.191  0.035  0.000  0.000  0.000  0.000  0.000  0.249
    3  0.011  0.012  0.191  0.035  0.000  0.000  0.000  0.000  0.000  0.249
tot    0.022  0.023  0.420  0.069  0.000  0.031  0.000  0.094  0.000  0.660
 
band     8 # energy   -3.12626666 # occ.  2.00000000
 
ion      s     py     pz     px    dxy    dyz    dz2    dxz  x2-y2    tot
    1  0.000  0.045  0.000  0.015  0.051  0.000  0.000  0.000  0.155  0.265
    2  0.000  0.178  0.000  0.059  0.000  0.000  0.000  0.000  0.000  0.237
    3  0.000  0.178  0.000  0.059  0.000  0.000  0.000  0.000  0.000  0.237
tot    0.000  0.400  0.000  0.133  0.051  0.000  0.000  0.000  0.155  0.740
 
band     9 # energy   -2.85506992 # occ.  2.00000000
 
ion      s     py     pz     px    dxy    dyz    dz2    dxz  x2-y2    tot
    1  0.020  0.015  0.000  0.044  0.170  0.000  0.299  0.000  0.057  0.604
    2  0.004  0.002  0.055  0.006  0.000  0.000  0.000  0.000  0.000  0.067
    3  0.004  0.002  0.055  0.006  0.000  0.000  0.000  0.000  0.000  0.067
tot    0.029  0.019  0.109  0.056  0.170  0.000  0.299  0.000  0.057  0.738
 
band    10 # energy    0.20606807 # occ.  0.00000000
 
ion      s     py     pz     px    dxy    dyz    dz2    dxz  x2-y2    tot
    1  0.000  0.006  0.000  0.002  0.187  0.000  0.000  0.000  0.560  0.754
    2  0.000  0.048  0.000  0.016  0.000  0.000  0.000  0.000  0.000  0.064
    3  0.000  0.048  0.000  0.016  0.000  0.000  0.000  0.000  0.000  0.064
tot    0.000  0.101  0.000  0.034  0.187  0.000  0.000  0.000  0.560  0.881
 
band    11 # energy    0.48585539 # occ.  0.00000000
 
ion      s     py     pz     px    dxy    dyz    dz2    dxz  x2-y2    tot
    1  0.011  0.001  0.000  0.004  0.188  0.000  0.434  0.000  0.063  0.701
    2  0.002  0.010  0.016  0.030  0.000  0.000  0.000  0.000  0.000  0.058
    3  0.002  0.010  0.016  0.030  0.000  0.000  0.000  0.000  0.000  0.058
tot    0.016  0.021  0.033  0.064  0.188  0.000  0.434  0.000  0.063  0.818
 
band    12 # energy    1.65043535 # occ.  0.00000000
 
ion      s     py     pz     px    dxy    dyz    dz2    dxz  x2-y2    tot
    1  0.000  0.000  0.012  0.000  0.000  0.115  0.000  0.345  0.000  0.473
    2  0.028  0.004  0.066  0.011  0.000  0.000  0.000  0.000  0.000  0.109
    3  0.028  0.004  0.066  0.011  0.000  0.000  0.000  0.000  0.000  0.109
tot    0.056  0.007  0.145  0.023  0.000  0.115  0.000  0.345  0.000  0.691
 
band    13 # energy    2.18183559 # occ.  0.00000000
 
ion      s     py     pz     px    dxy    dyz    dz2    dxz  x2-y2    tot
    1  0.000  0.000  0.000  0.000  0.000  0.354  0.000  0.118  0.000  0.473
    2  0.000  0.123  0.000  0.041  0.000  0.000  0.000  0.000  0.000  0.164
    3  0.000  0.123  0.000  0.041  0.000  0.000  0.000  0.000  0.000  0.164
tot    0.000  0.245  0.000  0.082  0.000  0.354  0.000  0.118  0.000  0.800
 
band    14 # energy    5.20346863 # occ.  0.00000000
 
ion      s     py     pz     px    dxy    dyz    dz2    dxz  x2-y2    tot
    1  0.163  0.014  0.000  0.043  0.043  0.000  0.022  0.000  0.014  0.300
    2  0.002  0.000  0.018  0.001  0.000  0.000  0.000  0.000  0.000  0.022
    3  0.002  0.000  0.018  0.001  0.000  0.000  0.000  0.000  0.000  0.022
tot    0.168  0.015  0.036  0.045  0.043  0.000  0.022  0.000  0.014  0.344
 

 k-point     5 :    0.50000000 0.00000000 0.00000000     weight = 0.04687500

band     1 # energy  -14.20252673 # occ.  2.00000000
 
ion      s     py     pz     px    dxy    dyz    dz2    dxz  x2-y2    tot
    1  0.020  0.012  0.000  0.036  0.038  0.000  0.000  0.000  0.013  0.118
    2  0.321  0.000  0.006  0.000  0.000  0.000  0.000  0.000  0.000  0.327
    3  0.321  0.000  0.006  0.000  0.000  0.000  0.000  0.000  0.000  0.327
tot    0.661  0.012  0.012  0.037  0.038  0.000  0.000  0.000  0.013  0.772
 
band     2 # energy  -13.95666757 # occ.  2.00000000
 
ion      s     py     pz     px    dxy    dyz    dz2    dxz  x2-y2    tot
    1  0.000  0.000  0.006  0.000  0.000  0.029  0.000  0.088  0.000  0.123
    2  0.330  0.000  0.003  0.000  0.000  0.000  0.000  0.000  0.000  0.333
    3  0.330  0.000  0.003  0.000  0.000  0.000  0.000  0.000  0.000  0.333
tot    0.660  0.000  0.011  0.001  0.000  0.029  0.000  0.088  0.000  0.790
 
band     3 # energy   -7.65981590 # occ.  2.00000000
 
ion      s     py     pz     px    dxy    dyz    dz2    dxz  x2-y2    tot
    1  0.122  0.006  0.000  0.018  0.067  0.000  0.023  0.000  0.022  0.258
    2  0.006  0.039  0.006  0.116  0.000  0.000  0.000  0.000  0.000  0.167
    3  0.006  0.039  0.006  0.116  0.000  0.000  0.000  0.000  0.000  0.167
tot    0.133  0.083  0.012  0.250  0.067  0.000  0.023  0.000  0.022  0.592
 
band     4 # energy   -6.70017885 # occ.  2.00000000
 
ion      s     py     pz     px    dxy    dyz    dz2    dxz  x2-y2    tot
    1  0.000  0.000  0.064  0.000  0.000  0.035  0.000  0.104  0.000  0.202
    2  0.010  0.044  0.011  0.132  0.000  0.000  0.000  0.000  0.000  0.197
    3  0.010  0.044  0.011  0.132  0.000  0.000  0.000  0.000  0.000  0.197
tot    0.021  0.088  0.086  0.263  0.000  0.035  0.000  0.104  0.000  0.596
 
band     5 # energy   -5.98543928 # occ.  2.00000000
 
ion      s     py     pz     px    dxy    dyz    dz2    dxz  x2-y2    tot
    1  0.000  0.009  0.000  0.026  0.173  0.000  0.115  0.000  0.058  0.380
    2  0.018  0.005  0.125  0.014  0.000  0.000  0.000  0.000  0.000  0.162
    3  0.018  0.005  0.126  0.014  0.000  0.000  0.000  0.000  0.000  0.162
tot    0.035  0.018  0.251  0.054  0.173  0.000  0.115  0.000  0.058  0.704
 
band     6 # energy   -5.08136472 # occ.  2.00000000
 
ion      s     py     pz     px    dxy    dyz    dz2    dxz  x2-y2    tot
    1  0.000  0.000  0.000  0.000  0.000  0.364  0.000  0.121  0.000  0.486
    2  0.000  0.124  0.000  0.041  0.000  0.000  0.000  0.000  0.000  0.165
    3  0.000  0.124  0.000  0.041  0.000  0.000  0.000  0.000  0.000  0.165
tot    0.000  0.247  0.000  0.082  0.000  0.364  0.000  0.121  0.000  0.815
 
band     7 # energy   -3.79718200 # occ.  2.00000000
 
ion      s     py     pz     px    dxy    dyz    dz2    dxz  x2-y2    tot
    1  0.000  0.000  0.024  0.000  0.000  0.046  0.000  0.137  0.000  0.206
    2  0.011  0.008  0.198  0.023  0.000  0.000  0.000  0.000  0.000  0.240
    3  0.011  0.008  0.198  0.023  0.000  0.000  0.000  0.000  0.000  0.240
tot    0.021  0.015  0.420  0.046  0.000  0.046  0.000  0.137  0.000  0.685
 
band     8 # energy   -2.89949865 # occ.  2.00000000
 
ion      s     py     pz     px    dxy    dyz    dz2    dxz  x2-y2    tot
    1  0.000  0.052  0.000  0.017  0.021  0.000  0.000  0.000  0.063  0.154
    2  0.000  0.206  0.000  0.069  0.000  0.000  0.000  0.000  0.000  0.275
    3  0.000  0.206  0.000  0.069  0.000  0.000  0.000  0.000  0.000  0.275
tot    0.000  0.465  0.000  0.155  0.021  0.000  0.000  0.000  0.063  0.704
 
band     9 # energy   -2.57393677 # occ.  2.00000000
 
ion      s     py     pz     px    dxy    dyz    dz2    dxz  x2-y2    tot
    1  0.003  0.027  0.000  0.082  0.100  0.000  0.261  0.000  0.033  0.508
    2  0.004  0.000  0.088  0.001  0.000  0.000  0.000  0.000  0.000  0.094
    3  0.004  0.000  0.088  0.001  0.000  0.000  0.000  0.000  0.000  0.094
tot    0.011  0.028  0.176  0.085  0.100  0.000  0.261  0.000  0.033  0.695
 
band    10 # energy    0.22760746 # occ.  0.00000000
 
ion      s     py     pz     px    dxy    dyz    dz2    dxz  x2-y2    tot
    1  0.000  0.003  0.000  0.001  0.224  0.000  0.000  0.000  0.671  0.899
    2  0.000  0.015  0.000  0.005  0.000  0.000  0.000  0.000  0.000  0.020
    3  0.000  0.015  0.000  0.005  0.000  0.000  0.000  0.000  0.000  0.020
tot    0.000  0.033  0.000  0.011  0.224  0.000  0.000  0.000  0.671  0.938
 
band    11 # energy    0.74225231 # occ.  0.00000000
 
ion      s     py     pz     px    dxy    dyz    dz2    dxz  x2-y2    tot
    1  0.009  0.003  0.000  0.009  0.219  0.000  0.513  0.000  0.073  0.827
    2  0.002  0.008  0.004  0.024  0.000  0.000  0.000  0.000  0.000  0.039
    3  0.002  0.008  0.004  0.024  0.000  0.000  0.000  0.000  0.000  0.039
tot    0.013  0.019  0.009  0.058  0.219  0.000  0.513  0.000  0.073  0.904
 
band    12 # energy    1.94982310 # occ.  0.00000000
 
ion      s     py     pz     px    dxy    dyz    dz2    dxz  x2-y2    tot
    1  0.000  0.000  0.000  0.000  0.000  0.104  0.000  0.313  0.000  0.417
    2  0.027  0.003  0.077  0.008  0.000  0.000  0.000  0.000  0.000  0.115
    3  0.027  0.003  0.077  0.008  0.000  0.000  0.000  0.000  0.000  0.115