<?xml version="1.0" encoding="ISO-8859-1"?>
<modeling>
 <generator>
  <i name="program" type="string">vasp </i>
  <i name="version" type="string">5.4.4.18Apr17-6-g9f103f2a35  </i>
  <i name="subversion" type="string">(build Jun 30 2017 11:15:00) complex            parallel </i>
  <i name="platform" type="string">STALLO_VASP_5.4.4 </i>
  <i name="date" type="string">2019 11 08 </i>
  <i name="time" type="string">11:44:55 </i>
 </generator>
 <incar>
  <i type="string" name="PREC">normal    ! low/normal/accurate</i>
  <i type="string" name="ALGO"> Fast      ! Algorithm for electronic re</i>
  <i type="int" name="ISPIN">     1</i>
  <i type="int" name="NELMIN">     4</i>
  <i name="EDIFF">      0.00000100</i>
  <i type="int" name="NSW">     0</i>
  <i name="ENCUT">    250.00000000</i>
  <i type="int" name="NEDOS">  2401</i>
  <i type="string" name="LREAL"> Auto      ! Projection in reciprocal sp</i>
  <i name="EMIN">    -12.00000000</i>
  <i name="EMAX">     12.00000000</i>
  <i type="int" name="ISMEAR">     0</i>
  <i name="SIGMA">      0.20000000</i>
  <i type="logical" name="LWAVE"> F  </i>
  <i type="int" name="LORBIT">    11</i>
  <i type="logical" name="LELF"> T  </i>
  <v type="int" name="KPOINT_BSE">    -1     0     0     0</v>
 </incar>
 <structure name="primitive_cell" >
  <crystal>
   <varray name="basis" >
    <v>       3.19031573       0.00000000       0.00000000 </v>
    <v>      -1.59515786       2.76289447       0.00000000 </v>
    <v>       0.00000000       0.00000000      16.87900430 </v>
   </varray>
   <i name="volume">    148.78007932 </i>
   <varray name="rec_basis" >
    <v>       0.31344860       0.18096963       0.00000000 </v>
    <v>       0.00000000       0.36193927       0.00000000 </v>
    <v>       0.00000000       0.00000000       0.05924520 </v>
   </varray>
  </crystal>
  <varray name="positions" >
   <v>       0.33333300      -0.33333300       0.22037740 </v>
   <v>      -0.33333400       0.33333300       0.31308929 </v>
   <v>      -0.33333300       0.33333300       0.12766551 </v>
  </varray>
 </structure>
 <varray name="primitive_index" >
  <v type="int" >        1 </v>
  <v type="int" >        3 </v>
  <v type="int" >        2 </v>
 </varray>
 <kpoints>
  <generation param="Gamma">
   <v type="int" name="divisions">       8        8        1 </v>
   <v name="usershift">      0.00000000       0.00000000       0.00000000 </v>
   <v name="genvec1">      0.12500000       0.00000000       0.00000000 </v>
   <v name="genvec2">      0.00000000       0.12500000       0.00000000 </v>
   <v name="genvec3">      0.00000000       0.00000000       1.00000000 </v>
   <v name="shift">      0.00000000       0.00000000       0.00000000 </v>
  </generation>
  <varray name="kpointlist" >
   <v>       0.00000000       0.00000000       0.00000000 </v>
   <v>       0.12500000       0.00000000       0.00000000 </v>
   <v>       0.25000000       0.00000000       0.00000000 </v>
   <v>       0.37500000       0.00000000       0.00000000 </v>
   <v>       0.50000000       0.00000000       0.00000000 </v>
   <v>       0.12500000       0.12500000       0.00000000 </v>
   <v>       0.25000000       0.12500000       0.00000000 </v>
   <v>       0.37500000       0.12500000       0.00000000 </v>
   <v>       0.25000000       0.25000000       0.00000000 </v>
   <v>       0.37500000       0.25000000       0.00000000 </v>
  </varray>
  <varray name="weights" >
   <v>       0.01562500 </v>
   <v>       0.09375000 </v>
   <v>       0.09375000 </v>
   <v>       0.09375000 </v>
   <v>       0.04687500 </v>
   <v>       0.09375000 </v>
   <v>       0.18750000 </v>
   <v>       0.18750000 </v>
   <v>       0.09375000 </v>
   <v>       0.09375000 </v>
  </varray>
 </kpoints>
 <parameters>
  <separator name="general" >
   <i type="string" name="SYSTEM">unknown system</i>
   <i type="logical" name="LCOMPAT"> F  </i>
  </separator>
  <separator name="electronic" >
   <i type="string" name="PREC">normal</i>
   <i name="ENMAX">    250.00000000</i>
   <i name="ENAUG">    345.27800000</i>
   <i name="EDIFF">      0.00000100</i>
   <i type="int" name="IALGO">    68</i>
   <i type="int" name="IWAVPR">    10</i>
   <i type="int" name="NBANDS">    14</i>
   <i name="NELECT">     18.00000000</i>
   <i type="int" name="TURBO">     0</i>
   <i type="int" name="IRESTART">     0</i>
   <i type="int" name="NREBOOT">     0</i>
   <i type="int" name="NMIN">     0</i>
   <i name="EREF">      0.00000000</i>
   <separator name="electronic smearing" >
    <i type="int" name="ISMEAR">     0</i>
    <i name="SIGMA">      0.20000000</i>
    <i name="KSPACING">      0.50000000</i>
    <i type="logical" name="KGAMMA"> T  </i>
   </separator>
   <separator name="electronic projectors" >
    <i type="logical" name="LREAL"> T  </i>
    <v name="ROPT">     -0.00050000     -0.00050000</v>
    <i type="int" name="LMAXPAW">  -100</i>
    <i type="int" name="LMAXMIX">     2</i>
    <i type="logical" name="NLSPLINE"> F  </i>
   </separator>
   <separator name="electronic startup" >
    <i type="int" name="ISTART">     0</i>
    <i type="int" name="ICHARG">     2</i>
    <i type="int" name="INIWAV">     1</i>
   </separator>
   <separator name="electronic spin" >
    <i type="int" name="ISPIN">     1</i>
    <i type="logical" name="LNONCOLLINEAR"> F  </i>
    <v name="MAGMOM">      1.00000000      1.00000000      1.00000000</v>
    <i name="NUPDOWN">     -1.00000000</i>
    <i type="logical" name="LSORBIT"> F  </i>
    <v name="SAXIS">      0.00000000      0.00000000      1.00000000</v>
    <i type="logical" name="LSPIRAL"> F  </i>
    <v name="QSPIRAL">      0.00000000      0.00000000      0.00000000</v>
    <i type="logical" name="LZEROZ"> F  </i>
   </separator>
   <separator name="electronic exchange-correlation" >
    <i type="logical" name="LASPH"> F  </i>
    <i type="logical" name="LMETAGGA"> F  </i>
   </separator>
   <separator name="electronic convergence" >
    <i type="int" name="NELM">    60</i>
    <i type="int" name="NELMDL">    -5</i>
    <i type="int" name="NELMIN">     4</i>
    <i name="ENINI">    250.00000000</i>
    <separator name="electronic convergence detail" >
     <i type="logical" name="LDIAG"> T  </i>
     <i type="logical" name="LSUBROT"> F  </i>
     <i name="WEIMIN">      0.00000000</i>
     <i name="EBREAK">      0.00000002</i>
     <i name="DEPER">      0.30000000</i>
     <i type="int" name="NRMM">     4</i>
     <i name="TIME">      0.40000000</i>
    </separator>
   </separator>
   <separator name="electronic mixer" >
    <i name="AMIX">      0.40000000</i>
    <i name="BMIX">      1.00000000</i>
    <i name="AMIN">      0.10000000</i>
    <i name="AMIX_MAG">      1.60000000</i>
    <i name="BMIX_MAG">      1.00000000</i>
    <separator name="electronic mixer details" >
     <i type="int" name="IMIX">     4</i>
     <i type="logical" name="MIXFIRST"> F  </i>
     <i type="int" name="MAXMIX">   -45</i>
     <i name="WC">    100.00000000</i>
     <i type="int" name="INIMIX">     1</i>
     <i type="int" name="MIXPRE">     1</i>
     <i type="int" name="MREMOVE">     5</i>
    </separator>
   </separator>
   <separator name="electronic dipolcorrection" >
    <i type="logical" name="LDIPOL"> F  </i>
    <i type="logical" name="LMONO"> F  </i>
    <i type="int" name="IDIPOL">     0</i>
    <i name="EPSILON">      1.00000000</i>
    <v name="DIPOL">   -100.00000000   -100.00000000   -100.00000000</v>
    <i name="EFIELD">      0.00000000</i>
   </separator>
  </separator>
  <separator name="grids" >
   <i type="int" name="NGX">    12</i>
   <i type="int" name="NGY">    12</i>
   <i type="int" name="NGZ">    70</i>
   <i type="int" name="NGXF">    24</i>
   <i type="int" name="NGYF">    24</i>
   <i type="int" name="NGZF">   140</i>
   <i type="logical" name="ADDGRID"> F  </i>
  </separator>
  <separator name="ionic" >
   <i type="int" name="NSW">     0</i>
   <i type="int" name="IBRION">    -1</i>
   <i type="int" name="MDALGO">     0</i>
   <i type="int" name="ISIF">     2</i>
   <i name="PSTRESS">      0.00000000</i>
   <i name="EDIFFG">      0.00001000</i>
   <i type="int" name="NFREE">     0</i>
   <i name="POTIM">      0.50000000</i>
   <i name="SMASS">     -3.00000000</i>
   <i name="SCALEE">      1.00000000</i>
  </separator>
  <separator name="ionic md" >
   <i name="TEBEG">      0.00010000</i>
   <i name="TEEND">      0.00010000</i>
   <i type="int" name="NBLOCK">     1</i>
   <i type="int" name="KBLOCK">     1</i>
   <i type="int" name="NPACO">   256</i>
   <i name="APACO">     16.00000000</i>
  </separator>
  <separator name="symmetry" >
   <i type="int" name="ISYM">     2</i>
   <i name="SYMPREC">      0.00001000</i>
  </separator>
  <separator name="dos" >
   <i type="int" name="LORBIT">    11</i>
   <v name="RWIGS">     -1.00000000     -1.00000000</v>
   <i type="int" name="NEDOS">  2401</i>
   <i name="EMIN">    -12.00000000</i>
   <i name="EMAX">     12.00000000</i>
   <i name="EFERMI">      0.00000000</i>
  </separator>
  <separator name="writing" >
   <i type="int" name="NWRITE">     2</i>
   <i type="logical" name="LWAVE"> F  </i>
   <i type="logical" name="LDOWNSAMPLE"> F  </i>
   <i type="logical" name="LCHARG"> T  </i>
   <i type="logical" name="LPARD"> F  </i>
   <i type="logical" name="LVTOT"> F  </i>
   <i type="logical" name="LVHAR"> F  </i>
   <i type="logical" name="LELF"> T  </i>
   <i type="logical" name="LOPTICS"> F  </i>
   <v name="STM">      0.00000000      0.00000000      0.00000000      0.00000000      0.00000000      0.00000000      0.00000000</v>
  </separator>
  <separator name="performance" >
   <i type="int" name="NPAR">     2</i>
   <i type="int" name="NSIM">     4</i>
   <i type="int" name="NBLK">    -1</i>
   <i type="logical" name="LPLANE"> T  </i>
   <i type="logical" name="LSCALAPACK"> T  </i>
   <i type="logical" name="LSCAAWARE"> F  </i>
   <i type="logical" name="LSCALU"> F  </i>
   <i type="logical" name="LASYNC"> F  </i>
   <i type="logical" name="LORBITALREAL"> F  </i>
  </separator>
  <separator name="miscellaneous" >
   <i type="int" name="IDIOT">     3</i>
   <i type="int" name="ISPECIAL">     0</i>
   <i type="logical" name="LMUSIC"> F  </i>
   <v name="POMASS">     95.94000000     32.06600000</v>
   <v name="DARWINR">      0.00000000      0.00000000</v>
   <v name="DARWINV">      1.00000000      1.00000000</v>
   <i type="logical" name="LCORR"> T  </i>
  </separator>
  <i type="logical" name="GGA_COMPAT"> T  </i>
  <i type="logical" name="LBERRY"> F  </i>
  <i type="int" name="ICORELEVEL">     0</i>
  <i type="logical" name="LDAU"> F  </i>
  <i type="int" name="I_CONSTRAINED_M">     0</i>
  <separator name="electronic exchange-correlation" >
   <i type="string" name="GGA">--</i>
   <i type="int" name="VOSKOWN">     0</i>
   <i type="logical" name="LHFCALC"> F  </i>
   <i type="string" name="PRECFOCK"></i>
   <i type="logical" name="LSYMGRAD"> F  </i>
   <i type="logical" name="LHFONE"> F  </i>
   <i type="logical" name="LRHFCALC"> F  </i>
   <i type="logical" name="LTHOMAS"> F  </i>
   <i type="logical" name="LMODELHF"> F  </i>
   <i name="ENCUT4O">     -1.00000000</i>
   <i type="int" name="EXXOEP">     0</i>
   <i type="int" name="FOURORBIT">     0</i>
   <i name="AEXX">      0.00000000</i>
   <i name="HFALPHA">      0.00000000</i>
   <i name="MCALPHA">      0.00000000</i>
   <i name="ALDAX">      1.00000000</i>
   <i name="AGGAX">      1.00000000</i>
   <i name="ALDAC">      1.00000000</i>
   <i name="AGGAC">      1.00000000</i>
   <i type="int" name="NKREDX">     1</i>
   <i type="int" name="NKREDY">     1</i>
   <i type="int" name="NKREDZ">     1</i>
   <i type="logical" name="SHIFTRED"> F  </i>
   <i type="logical" name="ODDONLY"> F  </i>
   <i type="logical" name="EVENONLY"> F  </i>
   <i type="int" name="LMAXFOCK">     0</i>
   <i type="int" name="NMAXFOCKAE">     0</i>
   <i type="logical" name="LFOCKAEDFT"> F  </i>
   <i name="HFSCREEN">      0.00000000</i>
   <i name="HFSCREENC">      0.00000000</i>
   <i type="int" name="NBANDSGWLOW">     0</i>
  </separator>
  <separator name="vdW DFT" >
   <i type="logical" name="LUSE_VDW"> F  </i>
   <i name="Zab_VDW">     -0.84910000</i>
   <i name="PARAM1">      0.12340000</i>
   <i name="PARAM2">      1.00000000</i>
   <i name="PARAM3">      0.00000000</i>
  </separator>
  <separator name="model GW" >
   <i type="int" name="MODEL_GW">     0</i>
   <i name="MODEL_EPS0">     29.75601586</i>
   <i name="MODEL_ALPHA">      1.00000000</i>
  </separator>
  <separator name="linear response parameters" >
   <i type="logical" name="LEPSILON"> F  </i>
   <i type="logical" name="LRPA"> F  </i>
   <i type="logical" name="LNABLA"> F  </i>
   <i type="logical" name="LVEL"> F  </i>
   <i type="int" name="KINTER">     0</i>
   <i name="CSHIFT">      0.10000000</i>
   <i name="OMEGAMAX">     -1.00000000</i>
   <i name="DEG_THRESHOLD">      0.00200000</i>
   <i name="RTIME">     -0.10000000</i>
   <i name="WPLASMAI">      0.00000000</i>
   <v name="DFIELD">      0.00000000      0.00000000      0.00000000</v>
   <v name="WPLASMA">      0.00000000      0.00000000      0.00000000      0.00000000      0.00000000      0.00000000      0.00000000      0.00000000      0.00000000</v>
  </separator>
  <separator name="orbital magnetization" >
   <i type="logical" name="NUCIND"> F  </i>
   <v name="MAGPOS">      0.00000000      0.00000000      0.00000000</v>
   <i type="logical" name="LNICSALL"> T  </i>
   <i type="logical" name="ORBITALMAG"> F  </i>
   <i type="logical" name="LMAGBLOCH"> F  </i>
   <i type="logical" name="LCHIMAG"> F  </i>
   <i type="logical" name="LGAUGE"> T  </i>
   <i type="int" name="MAGATOM">     0</i>
   <v name="MAGDIPOL">      0.00000000      0.00000000      0.00000000</v>
   <v name="AVECCONST">      0.00000000      0.00000000      0.00000000</v>
  </separator>
  <separator name="response functions" >
   <i type="logical" name="LADDER"> F  </i>
   <i type="logical" name="LRPAFORCE"> F  </i>
   <i type="logical" name="LFXC"> F  </i>
   <i type="logical" name="LHARTREE"> T  </i>
   <i type="int" name="IBSE">     0</i>
   <v type="int" name="KPOINT">    -1     0     0     0</v>
   <i type="logical" name="LTCTE"> F  </i>
   <i type="logical" name="LTETE"> F  </i>
   <i type="logical" name="LTRIPLET"> F  </i>
   <i type="logical" name="LFXCEPS"> F  </i>
   <i type="logical" name="LFXHEG"> F  </i>
   <i type="int" name="NATURALO">     2</i>
   <i type="logical" name="L2ORDER"> F  </i>
   <i type="logical" name="LMP2LT"> F  </i>
   <i type="logical" name="LUSEW"> F  </i>
   <i name="ENCUTGW">     -2.00000000</i>
   <i name="ENCUTGWSOFT">     -2.00000000</i>
   <i name="ENCUTLF">     -1.00000000</i>
   <i type="int" name="LMAXMP2">    -1</i>
   <i name="SCISSOR">      0.00000000</i>
   <i type="int" name="NOMEGA">     0</i>
   <i type="int" name="NOMEGAR">     0</i>
   <i type="int" name="NBANDSGW">    -1</i>
   <i type="int" name="NBANDSO">    -1</i>
   <i type="int" name="NBANDSV">    -1</i>
   <i type="int" name="NELM">     1</i>
   <i type="int" name="NELMHF">     1</i>
   <i type="int" name="DIM">     3</i>
   <i type="int" name="ANTIRES">     0</i>
   <i name="OMEGAMAX">    -30.00000000</i>
   <i name="OMEGAMIN">    -30.00000000</i>
   <i name="OMEGATL">   -200.00000000</i>
   <i type="int" name="OMEGAGRID">   140</i>
   <i name="CSHIFT">     -0.10000000</i>
   <i type="logical" name="SELFENERGY"> F  </i>
   <i type="logical" name="LSPECTRAL"> F  </i>
   <i type="logical" name="LSPECTRALGW"> F  </i>
   <i type="logical" name="LSINGLES"> F  </i>
   <i type="logical" name="LFERMIGW"> F  </i>
   <i type="logical" name="ODDONLYGW"> F  </i>
   <i type="logical" name="EVENONLYGW"> F  </i>
   <i type="int" name="NKREDLFX">     1</i>
   <i type="int" name="NKREDLFY">     1</i>
   <i type="int" name="NKREDLFZ">     1</i>
   <i type="int" name="MAXMEM">  2800</i>
   <i type="int" name="TELESCOPE">     0</i>
   <i type="int" name="TAUPAR">     1</i>
   <i type="int" name="OMEGAPAR">    -1</i>
   <i name="LAMBDA">      1.00000000</i>
  </separator>
  <separator name="External order field" >
   <i name="OFIELD_KAPPA">      0.00000000</i>
   <v name="OFIELD_K">      0.00000000      0.00000000      0.00000000</v>
   <i name="OFIELD_Q6_NEAR">      0.00000000</i>
   <i name="OFIELD_Q6_FAR">      0.00000000</i>
   <i name="OFIELD_A">      0.00000000</i>
  </separator>
 </parameters>
 <atominfo>
  <atoms>       3 </atoms>
  <types>       2 </types>
  <array name="atoms" >
   <dimension dim="1">ion</dimension>
   <field type="string">element</field>
   <field type="int">atomtype</field>
   <set>
    <rc><c>Mo</c><c>   1</c></rc>
    <rc><c>S </c><c>   2</c></rc>
    <rc><c>S </c><c>   2</c></rc>
   </set>
  </array>
  <array name="atomtypes" >
   <dimension dim="1">type</dimension>
   <field type="int">atomspertype</field>
   <field type="string">element</field>
   <field>mass</field>
   <field>valence</field>
   <field type="string">pseudopotential</field>
   <set>
    <rc><c>   1</c><c>Mo</c><c>     95.94000000</c><c>      6.00000000</c><c> PAW_PBE Mo 08Apr2002                   </c></rc>
    <rc><c>   2</c><c>S </c><c>     32.06600000</c><c>      6.00000000</c><c>  PAW_PBE S 17Jan2003                   </c></rc>
   </set>
  </array>
 </atominfo>
 <structure name="initialpos" >
  <crystal>
   <varray name="basis" >
    <v>       3.19031573       0.00000000       0.00000000 </v>
    <v>      -1.59515786       2.76289447       0.00000000 </v>
    <v>       0.00000000       0.00000000      16.87900430 </v>
   </varray>
   <i name="volume">    148.78007932 </i>
   <varray name="rec_basis" >
    <v>       0.31344860       0.18096963       0.00000000 </v>
    <v>       0.00000000       0.36193927       0.00000000 </v>
    <v>       0.00000000       0.00000000       0.05924520 </v>
   </varray>
  </crystal>
  <varray name="positions" >
   <v>       0.33333300       0.66666700       0.22037740 </v>
   <v>       0.66666700       0.33333300       0.12766551 </v>
   <v>       0.66666600       0.33333300       0.31308929 </v>
  </varray>
 </structure>
 <calculation>
  <scstep>
   <time name="dav">    0.09    0.09</time>
   <time name="total">    0.10    0.43</time>
   <energy>
    <i name="alphaZ">     19.92779736 </i>
    <i name="ewald">   1634.51317315 </i>
    <i name="hartreedc">  -2352.15051463 </i>
    <i name="XCdc">    -36.31054434 </i>
    <i name="pawpsdc">    406.88651198 </i>
    <i name="pawaedc">   -329.34073203 </i>
    <i name="eentropy">     -0.04189692 </i>
    <i name="bandstr">    -26.25465496 </i>
    <i name="atom">    771.06857575 </i>
    <i name="e_fr_energy">     88.29771536 </i>
    <i name="e_wo_entrp">     88.33961227 </i>
    <i name="e_0_energy">     88.31866381 </i>
   </energy>
  </scstep>
  <scstep>
   <time name="dav">    0.12    0.12</time>
   <time name="total">    0.12    0.12</time>
   <energy>
    <i name="e_fr_energy">    -15.22062363 </i>
    <i name="e_wo_entrp">    -15.22062363 </i>
    <i name="e_0_energy">    -15.22062363 </i>
   </energy>
  </scstep>
  <scstep>
   <time name="dav">    0.11    0.11</time>
   <time name="total">    0.11    0.11</time>
   <energy>
    <i name="e_fr_energy">    -23.23349751 </i>
    <i name="e_wo_entrp">    -23.23349751 </i>
    <i name="e_0_energy">    -23.23349751 </i>
   </energy>
  </scstep>
  <scstep>
   <time name="dav">    0.09    0.09</time>
   <time name="total">    0.09    0.09</time>
   <energy>
    <i name="e_fr_energy">    -23.36709801 </i>
    <i name="e_wo_entrp">    -23.36709801 </i>
    <i name="e_0_energy">    -23.36709801 </i>
   </energy>
  </scstep>
  <scstep>
   <time name="dav">    0.11    0.11</time>
   <time name="total">    0.12    0.12</time>
   <energy>
    <i name="e_fr_energy">    -23.37095004 </i>
    <i name="e_wo_entrp">    -23.37095004 </i>
    <i name="e_0_energy">    -23.37095004 </i>
   </energy>
  </scstep>
  <scstep>
   <time name="diag">    0.01    0.02</time>
   <time name="diis">    0.05    0.05</time>
   <time name="orth">    0.00    0.00</time>
   <time name="total">    0.09    0.09</time>
   <energy>
    <i name="e_fr_energy">    -22.21345045 </i>
    <i name="e_wo_entrp">    -22.21345042 </i>
    <i name="e_0_energy">    -22.21345044 </i>
   </energy>
  </scstep>
  <scstep>
   <time name="diag">    0.01    0.01</time>
   <time name="diis">    0.05    0.05</time>
   <time name="orth">    0.00    0.00</time>
   <time name="total">    0.09    0.09</time>
   <energy>
    <i name="e_fr_energy">    -21.82745954 </i>
    <i name="e_wo_entrp">    -21.82745954 </i>
    <i name="e_0_energy">    -21.82745954 </i>
   </energy>
  </scstep>
  <scstep>
   <time name="diag">    0.01    0.01</time>
   <time name="diis">    0.05    0.05</time>
   <time name="orth">    0.00    0.00</time>
   <time name="total">    0.09    0.09</time>
   <energy>
    <i name="e_fr_energy">    -21.76843950 </i>
    <i name="e_wo_entrp">    -21.76843950 </i>
    <i name="e_0_energy">    -21.76843950 </i>
   </energy>
  </scstep>
  <scstep>
   <time name="diag">    0.01    0.01</time>
   <time name="diis">    0.06    0.06</time>
   <time name="orth">    0.00    0.00</time>
   <time name="total">    0.10    0.10</time>
   <energy>
    <i name="e_fr_energy">    -21.76402001 </i>
    <i name="e_wo_entrp">    -21.76402001 </i>
    <i name="e_0_energy">    -21.76402001 </i>
   </energy>
  </scstep>
  <scstep>
   <time name="diag">    0.01    0.01</time>
   <time name="diis">    0.06    0.06</time>
   <time name="orth">    0.00    0.00</time>
   <time name="total">    0.10    0.10</time>
   <energy>
    <i name="e_fr_energy">    -21.76336263 </i>
    <i name="e_wo_entrp">    -21.76336263 </i>
    <i name="e_0_energy">    -21.76336263 </i>
   </energy>
  </scstep>
  <scstep>
   <time name="diag">    0.01    0.01</time>
   <time name="diis">    0.06    0.06</time>
   <time name="orth">    0.00    0.00</time>
   <time name="total">    0.10    0.10</time>
   <energy>
    <i name="e_fr_energy">    -21.76341145 </i>
    <i name="e_wo_entrp">    -21.76341145 </i>
    <i name="e_0_energy">    -21.76341145 </i>
   </energy>
  </scstep>
  <scstep>
   <time name="diag">    0.01    0.01</time>
   <time name="diis">    0.05    0.05</time>
   <time name="orth">    0.00    0.00</time>
   <time name="total">    0.09    0.09</time>
   <energy>
    <i name="e_fr_energy">    -21.76317837 </i>
    <i name="e_wo_entrp">    -21.76317837 </i>
    <i name="e_0_energy">    -21.76317837 </i>
   </energy>
  </scstep>
  <scstep>
   <time name="diag">    0.01    0.01</time>
   <time name="diis">    0.05    0.05</time>
   <time name="orth">    0.00    0.00</time>
   <time name="total">    0.09    0.09</time>
   <energy>
    <i name="e_fr_energy">    -21.76338383 </i>
    <i name="e_wo_entrp">    -21.76338383 </i>
    <i name="e_0_energy">    -21.76338383 </i>
   </energy>
  </scstep>
  <scstep>
   <time name="diag">    0.01    0.01</time>
   <time name="diis">    0.05    0.05</time>
   <time name="orth">    0.00    0.00</time>
   <time name="total">    0.09    0.09</time>
   <energy>
    <i name="e_fr_energy">    -21.76340255 </i>
    <i name="e_wo_entrp">    -21.76340255 </i>
    <i name="e_0_energy">    -21.76340255 </i>
   </energy>
  </scstep>
  <scstep>
   <time name="diag">    0.01    0.01</time>
   <time name="diis">    0.05    0.05</time>
   <time name="orth">    0.00    0.00</time>
   <time name="total">    0.09    0.09</time>
   <energy>
    <i name="e_fr_energy">    -21.76348841 </i>
    <i name="e_wo_entrp">    -21.76348841 </i>
    <i name="e_0_energy">    -21.76348841 </i>
   </energy>
  </scstep>
  <scstep>
   <time name="diag">    0.01    0.01</time>
   <time name="diis">    0.05    0.05</time>
   <time name="orth">    0.00    0.00</time>
   <time name="total">    0.08    0.08</time>
   <energy>
    <i name="e_fr_energy">    -21.76354747 </i>
    <i name="e_wo_entrp">    -21.76354747 </i>
    <i name="e_0_energy">    -21.76354747 </i>
   </energy>
  </scstep>
  <scstep>
   <time name="diag">    0.01    0.01</time>
   <time name="diis">    0.04    0.04</time>
   <time name="orth">    0.00    0.00</time>
   <time name="total">    0.08    0.08</time>
   <energy>
    <i name="e_fr_energy">    -21.76359133 </i>
    <i name="e_wo_entrp">    -21.76359133 </i>
    <i name="e_0_energy">    -21.76359133 </i>
   </energy>
  </scstep>
  <scstep>
   <time name="diag">    0.01    0.01</time>
   <time name="diis">    0.04    0.04</time>
   <time name="orth">    0.00    0.00</time>
   <time name="total">    0.08    0.08</time>
   <energy>
    <i name="e_fr_energy">    -21.76359341 </i>
    <i name="e_wo_entrp">    -21.76359341 </i>
    <i name="e_0_energy">    -21.76359341 </i>
   </energy>
  </scstep>
  <scstep>
   <time name="diag">    0.01    0.01</time>
   <time name="diis">    0.04    0.04</time>
   <time name="orth">    0.00    0.00</time>
   <time name="total">    0.08    0.08</time>
   <energy>
    <i name="e_fr_energy">    -21.76359587 </i>
    <i name="e_wo_entrp">    -21.76359587 </i>
    <i name="e_0_energy">    -21.76359587 </i>
   </energy>
  </scstep>
  <scstep>
   <time name="diag">    0.01    0.01</time>
   <time name="diis">    0.03    0.03</time>
   <time name="orth">    0.00    0.00</time>
   <time name="total">    0.06    0.06</time>
   <energy>
    <i name="alphaZ">     19.92779736 </i>
    <i name="ewald">   1634.51317315 </i>
    <i name="hartreedc">  -2362.97730416 </i>
    <i name="XCdc">    -35.17220728 </i>
    <i name="pawpsdc">    478.66216352 </i>
    <i name="pawaedc">   -402.85303901 </i>
    <i name="eentropy">     -0.00000000 </i>
    <i name="bandstr">   -124.93275526 </i>
    <i name="atom">    771.06857575 </i>
    <i name="e_fr_energy">    -21.76359594 </i>
    <i name="e_wo_entrp">    -21.76359594 </i>
    <i name="e_0_energy">    -21.76359594 </i>
   </energy>
  </scstep>
  <structure>
   <crystal>
    <varray name="basis" >
     <v>       3.19031573       0.00000000       0.00000000 </v>
     <v>      -1.59515786       2.76289447       0.00000000 </v>
     <v>       0.00000000       0.00000000      16.87900430 </v>
    </varray>
    <i name="volume">    148.78007932 </i>
    <varray name="rec_basis" >
     <v>       0.31344860       0.18096963       0.00000000 </v>
     <v>       0.00000000       0.36193927       0.00000000 </v>
     <v>       0.00000000       0.00000000       0.05924520 </v>
    </varray>
   </crystal>
   <varray name="positions" >
    <v>       0.33333300       0.66666700       0.22037740 </v>
    <v>       0.66666700       0.33333300       0.12766551 </v>
    <v>       0.66666600       0.33333300       0.31308929 </v>
   </varray>
  </structure>
  <varray name="forces" >
   <v>       0.00000000       0.00000000       0.00000000 </v>
   <v>      -0.00000000       0.00000000       0.10300691 </v>
   <v>      -0.00000000       0.00000000      -0.10300691 </v>
  </varray>
  <varray name="stress" >
   <v>      -6.50810680       0.00000000       0.00000000 </v>
   <v>       0.00000000      -6.50810680       0.00000000 </v>
   <v>       0.00000000       0.00000000      -9.63835134 </v>
  </varray>
  <energy>
   <i name="e_fr_energy">    -22.35607609 </i>
   <i name="e_wo_entrp">    -22.35607609 </i>
   <i name="e_0_energy">     -0.00000000 </i>
  </energy>
  <time name="totalsc">    2.11    2.53</time>
  <eigenvalues>
   <array>
    <dimension dim="1">band</dimension>
    <dimension dim="2">kpoint</dimension>
    <dimension dim="3">spin</dimension>
    <field>eigene</field>
    <field>occ</field>
    <set>
     <set comment="spin 1">
      <set comment="kpoint 1">
       <r>  -15.9883    1.0000 </r>
       <r>  -14.7799    1.0000 </r>
       <r>   -7.4978    1.0000 </r>
       <r>   -4.5364    1.0000 </r>
       <r>   -4.5361    1.0000 </r>
       <r>   -3.6750    1.0000 </r>
       <r>   -3.4288    1.0000 </r>
       <r>   -3.4284    1.0000 </r>
       <r>   -1.9542    1.0000 </r>
       <r>    0.8201    0.0000 </r>
       <r>    0.8209    0.0000 </r>
       <r>    1.0426    0.0000 </r>
       <r>    1.0433    0.0000 </r>
       <r>    3.3993    0.0000 </r>
      </set>
      <set comment="kpoint 2">
       <r>  -15.7742    1.0000 </r>
       <r>  -14.6774    1.0000 </r>
       <r>   -7.2525    1.0000 </r>
       <r>   -5.0005    1.0000 </r>
       <r>   -4.4833    1.0000 </r>
       <r>   -4.3022    1.0000 </r>
       <r>   -3.7652    1.0000 </r>
       <r>   -2.9971    1.0000 </r>
       <r>   -2.0924    1.0000 </r>
       <r>    0.5374    0.0000 </r>
       <r>    0.6042    0.0000 </r>
       <r>    0.8053    0.0000 </r>
       <r>    1.1744    0.0000 </r>
       <r>    3.7607    0.0000 </r>
      </set>
      <set comment="kpoint 3">
       <r>  -15.2057    1.0000 </r>
       <r>  -14.4086    1.0000 </r>
       <r>   -6.8870    1.0000 </r>
       <r>   -5.7289    1.0000 </r>
       <r>   -5.4649    1.0000 </r>
       <r>   -4.4017    1.0000 </r>
       <r>   -3.7158    1.0000 </r>
       <r>   -3.2497    1.0000 </r>
       <r>   -2.6610    1.0000 </r>
       <r>    0.2132    0.0000 </r>
       <r>    0.3889    0.0000 </r>
       <r>    0.9315    0.0000 </r>
       <r>    1.7892    0.0000 </r>
       <r>    4.5902    0.0000 </r>
      </set>
      <set comment="kpoint 4">
       <r>  -14.5307    1.0000 </r>
       <r>  -14.1000    1.0000 </r>
       <r>   -7.3265    1.0000 </r>
       <r>   -6.3341    1.0000 </r>
       <r>   -5.8596    1.0000 </r>
       <r>   -4.9002    1.0000 </r>
       <r>   -3.6587    1.0000 </r>
       <r>   -3.1263    1.0000 </r>
       <r>   -2.8551    1.0000 </r>
       <r>    0.2061    0.0000 </r>
       <r>    0.4859    0.0000 </r>
       <r>    1.6504    0.0000 </r>
       <r>    2.1818    0.0000 </r>
       <r>    5.2035    0.0000 </r>
      </set>
      <set comment="kpoint 5">
       <r>  -14.2025    1.0000 </r>
       <r>  -13.9567    1.0000 </r>
       <r>   -7.6598    1.0000 </r>
       <r>   -6.7002    1.0000 </r>
       <r>   -5.9854    1.0000 </r>
       <r>   -5.0814    1.0000 </r>
       <r>   -3.7972    1.0000 </r>
       <r>   -2.8995    1.0000 </r>
       <r>   -2.5739    1.0000 </r>
       <r>    0.2276    0.0000 </r>
       <r>    0.7423    0.0000 </r>
       <r>    1.9498    0.0000 </r>
       <r>    2.2978    0.0000 </r>
       <r>    4.2514    0.0000 </r>
      </set>
      <set comment="kpoint 6">
       <r>  -15.3815    1.0000 </r>
       <r>  -14.4903    1.0000 </r>
       <r>   -6.9055    1.0000 </r>
       <r>   -5.5658    1.0000 </r>
       <r>   -5.0458    1.0000 </r>
       <r>   -4.5795    1.0000 </r>
       <r>   -3.9633    1.0000 </r>
       <r>   -2.8626    1.0000 </r>
       <r>   -2.4653    1.0000 </r>
       <r>    0.1385    0.0000 </r>
       <r>    0.5159    0.0000 </r>
       <r>    0.5280    0.0000 </r>
       <r>    1.7688    0.0000 </r>
       <r>    4.3537    0.0000 </r>
      </set>
      <set comment="kpoint 7">
       <r>  -14.7481    1.0000 </r>
       <r>  -14.1917    1.0000 </r>
       <r>   -6.9697    1.0000 </r>
       <r>   -5.9922    1.0000 </r>
       <r>   -5.7289    1.0000 </r>
       <r>   -5.0847    1.0000 </r>
       <r>   -3.8641    1.0000 </r>
       <r>   -3.2255    1.0000 </r>
       <r>   -2.7491    1.0000 </r>
       <r>    0.0546    0.0000 </r>
       <r>    0.5014    0.0000 </r>
       <r>    0.9984    0.0000 </r>
       <r>    2.2739    0.0000 </r>
       <r>    5.3571    0.0000 </r>
      </set>
      <set comment="kpoint 8">
       <r>  -14.2178    1.0000 </r>
       <r>  -13.9478    1.0000 </r>
       <r>   -7.3719    1.0000 </r>
       <r>   -6.7560    1.0000 </r>
       <r>   -5.8579    1.0000 </r>
       <r>   -5.1026    1.0000 </r>
       <r>   -3.8492    1.0000 </r>
       <r>   -3.7069    1.0000 </r>
       <r>   -2.4225    1.0000 </r>
       <r>    0.2466    0.0000 </r>
       <r>    0.7568    0.0000 </r>
       <r>    1.6219    0.0000 </r>
       <r>    2.3080    0.0000 </r>
       <r>    4.7771    0.0000 </r>
      </set>
      <set comment="kpoint 9">
       <r>  -14.2328    1.0000 </r>
       <r>  -13.9389    1.0000 </r>
       <r>   -7.0116    1.0000 </r>
       <r>   -6.8062    1.0000 </r>
       <r>   -5.5319    1.0000 </r>
       <r>   -5.1513    1.0000 </r>
       <r>   -4.8317    1.0000 </r>
       <r>   -3.5746    1.0000 </r>
       <r>   -2.4523    1.0000 </r>
       <r>    0.1957    0.0000 </r>
       <r>    0.8073    0.0000 </r>
       <r>    1.1230    0.0000 </r>
       <r>    2.5918    0.0000 </r>
       <r>    5.6061    0.0000 </r>
      </set>
      <set comment="kpoint 10">
       <r>  -13.9978    1.0000 </r>
       <r>  -13.8198    1.0000 </r>
       <r>   -7.1903    1.0000 </r>
       <r>   -6.8418    1.0000 </r>
       <r>   -5.8147    1.0000 </r>
       <r>   -5.1526    1.0000 </r>
       <r>   -4.9245    1.0000 </r>
       <r>   -3.9590    1.0000 </r>
       <r>   -2.0848    1.0000 </r>
       <r>   -0.1305    0.0000 </r>
       <r>    1.1852    0.0000 </r>
       <r>    1.3571    0.0000 </r>
       <r>    2.7357    0.0000 </r>
       <r>    5.0225    0.0000 </r>
      </set>
     </set>
    </set>
   </array>
  </eigenvalues>
  <separator name="orbital magnetization" >
   <v name="MAGDIPOLOUT">      0.00000000      0.00000000      0.00000000</v>
  </separator>
  <dos>
   <i name="efermi">     -1.13000000 </i>
   <total>
    <array>
     <dimension dim="1">gridpoints</dimension>
     <dimension dim="2">spin</dimension>
     <field>energy</field>
     <field>total</field>
     <field>integrated</field>
     <set>
      <set comment="spin 1">
       <r>   -12.0000   400.0000     4.0000 </r>
       <r>   -11.9900     0.0000     4.0000 </r>
       <r>   -11.9800     0.0000     4.0000 </r>
       <r>   -11.9700     0.0000     4.0000 </r>
       <r>   -11.9600     0.0000     4.0000 </r>
       <r>   -11.9500     0.0000     4.0000 </r>
       <r>   -11.9400     0.0000     4.0000 </r>
       <r>   -11.9300     0.0000     4.0000 </r>
       <r>   -11.9200     0.0000     4.0000 </r>
       <r>   -11.9100     0.0000     4.0000 </r>
       <r>   -11.9000     0.0000     4.0000 </r>
       <r>   -11.8900     0.0000     4.0000 </r>
       <r>   -11.8800     0.0000     4.0000 </r>
       <r>   -11.8700     0.0000     4.0000 </r>
       <r>   -11.8600     0.0000     4.0000 </r>
       <r>   -11.8500     0.0000     4.0000 </r>
       <r>   -11.8400     0.0000     4.0000 </r>
       <r>   -11.8300     0.0000     4.0000 </r>
       <r>   -11.8200     0.0000     4.0000 </r>
       <r>   -11.8100     0.0000     4.0000 </r>
       <r>   -11.8000     0.0000     4.0000 </r>
       <r>   -11.7900     0.0000     4.0000 </r>
       <r>   -11.7800     0.0000     4.0000 </r>
       <r>   -11.7700     0.0000     4.0000 </r>
       <r>   -11.7600     0.0000     4.0000 </r>
       <r>   -11.7500     0.0000     4.0000 </r>
       <r>   -11.7400     0.0000     4.0000 </r>
       <r>   -11.7300     0.0000     4.0000 </r>
       <r>   -11.7200     0.0000     4.0000 </r>
       <r>   -11.7100     0.0000     4.0000 </r>
       <r>   -11.7000     0.0000     4.0000 </r>
       <r>   -11.6900     0.0000     4.0000 </r>
       <r>   -11.6800     0.0000     4.0000 </r>
       <r>   -11.6700     0.0000     4.0000 </r>
       <r>   -11.6600     0.0000     4.0000 </r>
       <r>   -11.6500     0.0000     4.0000 </r>
       <r>   -11.6400     0.0000     4.0000 </r>
       <r>   -11.6300     0.0000     4.0000 </r>
       <r>   -11.6200     0.0000     4.0000 </r>
       <r>   -11.6100     0.0000     4.0000 </r>
       <r>   -11.6000     0.0000     4.0000 </r>
       <r>   -11.5900     0.0000     4.0000 </r>
       <r>   -11.5800     0.0000     4.0000 </r>
       <r>   -11.5700     0.0000     4.0000 </r>
       <r>   -11.5600     0.0000     4.0000 </r>
       <r>   -11.5500     0.0000     4.0000 </r>
       <r>   -11.5400     0.0000     4.0000 </r>
       <r>   -11.5300     0.0000     4.0000 </r>
       <r>   -11.5200     0.0000     4.0000 </r>
       <r>   -11.5100     0.0000     4.0000 </r>
       <r>   -11.5000     0.0000     4.0000 </r>
       <r>   -11.4900     0.0000     4.0000 </r>
       <r>   -11.4800     0.0000     4.0000 </r>
       <r>   -11.4700     0.0000     4.0000 </r>
       <r>   -11.4600     0.0000     4.0000 </r>
       <r>   -11.4500     0.0000     4.0000 </r>
       <r>   -11.4400     0.0000     4.0000 </r>
       <r>   -11.4300     0.0000     4.0000 </r>
       <r>   -11.4200     0.0000     4.0000 </r>
       <r>   -11.4100     0.0000     4.0000 </r>
       <r>   -11.4000     0.0000     4.0000 </r>
       <r>   -11.3900     0.0000     4.0000 </r>
       <r>   -11.3800     0.0000     4.0000 </r>
       <r>   -11.3700     0.0000     4.0000 </r>
       <r>   -11.3600     0.0000     4.0000 </r>
       <r>   -11.3500     0.0000     4.0000 </r>
       <r>   -11.3400     0.0000     4.0000 </r>
       <r>   -11.3300     0.0000     4.0000 </r>
       <r>   -11.3200     0.0000     4.0000 </r>
       <r>   -11.3100     0.0000     4.0000 </r>
       <r>   -11.3000     0.0000     4.0000 </r>
       <r>   -11.2900     0.0000     4.0000 </r>
       <r>   -11.2800     0.0000     4.0000 </r>
       <r>   -11.2700     0.0000     4.0000 </r>
       <r>   -11.2600     0.0000     4.0000 </r>
       <r>   -11.2500     0.0000     4.0000 </r>
       <r>   -11.2400     0.0000     4.0000 </r>
       <r>   -11.2300     0.0000     4.0000 </r>
       <r>   -11.2200     0.0000     4.0000 </r>
       <r>   -11.2100     0.0000     4.0000 </r>
       <r>   -11.2000     0.0000     4.0000 </r>
       <r>   -11.1900     0.0000     4.0000 </r>
       <r>   -11.1800     0.0000     4.0000 </r>
       <r>   -11.1700     0.0000     4.0000 </r>
       <r>   -11.1600     0.0000     4.0000 </r>
       <r>   -11.1500     0.0000     4.0000 </r>
       <r>   -11.1400     0.0000     4.0000 </r>
       <r>   -11.1300     0.0000     4.0000 </r>
       <r>   -11.1200     0.0000     4.0000 </r>
       <r>   -11.1100     0.0000     4.0000 </r>
       <r>   -11.1000     0.0000     4.0000 </r>
       <r>   -11.0900     0.0000     4.0000 </r>
       <r>   -11.0800     0.0000     4.0000 </r>
       <r>   -11.0700     0.0000     4.0000 </r>
       <r>   -11.0600     0.0000     4.0000 </r>
       <r>   -11.0500     0.0000     4.0000 </r>
       <r>   -11.0400     0.0000     4.0000 </r>
       <r>   -11.0300     0.0000     4.0000 </r>
       <r>   -11.0200     0.0000     4.0000 </r>
       <r>   -11.0100     0.0000     4.0000 </r>
       <r>   -11.0000     0.0000     4.0000 </r>
       <r>   -10.9900     0.0000     4.0000 </r>
       <r>   -10.9800     0.0000     4.0000 </r>
       <r>   -10.9700     0.0000     4.0000 </r>
       <r>   -10.9600     0.0000     4.0000 </r>
       <r>   -10.9500     0.0000     4.0000 </r>
       <r>   -10.9400     0.0000     4.0000 </r>
       <r>   -10.9300     0.0000     4.0000 </r>
       <r>   -10.9200     0.0000     4.0000 </r>
       <r>   -10.9100     0.0000     4.0000 </r>
       <r>   -10.9000     0.0000     4.0000 </r>
       <r>   -10.8900     0.0000     4.0000 </r>
       <r>   -10.8800     0.0000     4.0000 </r>
       <r>   -10.8700     0.0000     4.0000 </r>
       <r>   -10.8600     0.0000     4.0000 </r>
       <r>   -10.8500     0.0000     4.0000 </r>
       <r>   -10.8400     0.0000     4.0000 </r>
       <r>   -10.8300     0.0000     4.0000 </r>
       <r>   -10.8200     0.0000     4.0000 </r>
       <r>   -10.8100     0.0000     4.0000 </r>
       <r>   -10.8000     0.0000     4.0000 </r>
       <r>   -10.7900     0.0000     4.0000 </r>
       <r>   -10.7800     0.0000     4.0000 </r>
       <r>   -10.7700     0.0000     4.0000 </r>
       <r>   -10.7600     0.0000     4.0000 </r>
       <r>   -10.7500     0.0000     4.0000 </r>
       <r>   -10.7400     0.0000     4.0000 </r>
       <r>   -10.7300     0.0000     4.0000 </r>
       <r>   -10.7200     0.0000     4.0000 </r>
       <r>   -10.7100     0.0000     4.0000 </r>
       <r>   -10.7000     0.0000     4.0000 </r>
       <r>   -10.6900     0.0000     4.0000 </r>
       <r>   -10.6800     0.0000     4.0000 </r>
       <r>   -10.6700     0.0000     4.0000 </r>
       <r>   -10.6600     0.0000     4.0000 </r>
       <r>   -10.6500     0.0000     4.0000 </r>
       <r>   -10.6400     0.0000     4.0000 </r>
       <r>   -10.6300     0.0000     4.0000 </r>
       <r>   -10.6200     0.0000     4.0000 </r>
       <r>   -10.6100     0.0000     4.0000 </r>
       <r>   -10.6000     0.0000     4.0000 </r>
       <r>   -10.5900     0.0000     4.0000 </r>
       <r>   -10.5800     0.0000     4.0000 </r>
       <r>   -10.5700     0.0000     4.0000 </r>
       <r>   -10.5600     0.0000     4.0000 </r>
       <r>   -10.5500     0.0000     4.0000 </r>
       <r>   -10.5400     0.0000     4.0000 </r>
       <r>   -10.5300     0.0000     4.0000 </r>
       <r>   -10.5200     0.0000     4.0000 </r>
       <r>   -10.5100     0.0000     4.0000 </r>
       <r>   -10.5000     0.0000     4.0000 </r>
       <r>   -10.4900     0.0000     4.0000 </r>
       <r>   -10.4800     0.0000     4.0000 </r>
       <r>   -10.4700     0.0000     4.0000 </r>
       <r>   -10.4600     0.0000     4.0000 </r>
       <r>   -10.4500     0.0000     4.0000 </r>
       <r>   -10.4400     0.0000     4.0000 </r>
       <r>   -10.4300     0.0000     4.0000 </r>
       <r>   -10.4200     0.0000     4.0000 </r>
       <r>   -10.4100     0.0000     4.0000 </r>
       <r>   -10.4000     0.0000     4.0000 </r>
       <r>   -10.3900     0.0000     4.0000 </r>
       <r>   -10.3800     0.0000     4.0000 </r>
       <r>   -10.3700     0.0000     4.0000 </r>
       <r>   -10.3600     0.0000     4.0000 </r>
       <r>   -10.3500     0.0000     4.0000 </r>
       <r>   -10.3400     0.0000     4.0000 </r>
       <r>   -10.3300     0.0000     4.0000 </r>
       <r>   -10.3200     0.0000     4.0000 </r>
       <r>   -10.3100     0.0000     4.0000 </r>
       <r>   -10.3000     0.0000     4.0000 </r>
       <r>   -10.2900     0.0000     4.0000 </r>
       <r>   -10.2800     0.0000     4.0000 </r>
       <r>   -10.2700     0.0000     4.0000 </r>
       <r>   -10.2600     0.0000     4.0000 </r>
       <r>   -10.2500     0.0000     4.0000 </r>
       <r>   -10.2400     0.0000     4.0000 </r>
       <r>   -10.2300     0.0000     4.0000 </r>
       <r>   -10.2200     0.0000     4.0000 </r>
       <r>   -10.2100     0.0000     4.0000 </r>
       <r>   -10.2000     0.0000     4.0000 </r>
       <r>   -10.1900     0.0000     4.0000 </r>
       <r>   -10.1800     0.0000     4.0000 </r>
       <r>   -10.1700     0.0000     4.0000 </r>
       <r>   -10.1600     0.0000     4.0000 </r>
       <r>   -10.1500     0.0000     4.0000 </r>
       <r>   -10.1400     0.0000     4.0000 </r>
       <r>   -10.1300     0.0000     4.0000 </r>
       <r>   -10.1200     0.0000     4.0000 </r>
       <r>   -10.1100     0.0000     4.0000 </r>
       <r>   -10.1000     0.0000     4.0000 </r>
       <r>   -10.0900     0.0000     4.0000 </r>
       <r>   -10.0800     0.0000     4.0000 </r>
       <r>   -10.0700     0.0000     4.0000 </r>
       <r>   -10.0600     0.0000     4.0000 </r>
       <r>   -10.0500     0.0000     4.0000 </r>
       <r>   -10.0400     0.0000     4.0000 </r>
       <r>   -10.0300     0.0000     4.0000 </r>
       <r>   -10.0200     0.0000     4.0000 </r>
       <r>   -10.0100     0.0000     4.0000 </r>
       <r>   -10.0000     0.0000     4.0000 </r>
       <r>    -9.9900     0.0000     4.0000 </r>
       <r>    -9.9800     0.0000     4.0000 </r>
       <r>    -9.9700     0.0000     4.0000 </r>
       <r>    -9.9600     0.0000     4.0000 </r>
       <r>    -9.9500     0.0000     4.0000 </r>
       <r>    -9.9400     0.0000     4.0000 </r>
       <r>    -9.9300     0.0000     4.0000 </r>
       <r>    -9.9200     0.0000     4.0000 </r>
       <r>    -9.9100     0.0000     4.0000 </r>
       <r>    -9.9000     0.0000     4.0000 </r>
       <r>    -9.8900     0.0000     4.0000 </r>
       <r>    -9.8800     0.0000     4.0000 </r>
       <r>    -9.8700     0.0000     4.0000 </r>
       <r>    -9.8600     0.0000     4.0000 </r>
       <r>    -9.8500     0.0000     4.0000 </r>
       <r>    -9.8400     0.0000     4.0000 </r>
       <r>    -9.8300     0.0000     4.0000 </r>
       <r>    -9.8200     0.0000     4.0000 </r>
       <r>    -9.8100     0.0000     4.0000 </r>
       <r>    -9.8000     0.0000     4.0000 </r>
       <r>    -9.7900     0.0000     4.0000 </r>
       <r>    -9.7800     0.0000     4.0000 </r>
       <r>    -9.7700     0.0000     4.0000 </r>
       <r>    -9.7600     0.0000     4.0000 </r>
       <r>    -9.7500     0.0000     4.0000 </r>
       <r>    -9.7400     0.0000     4.0000 </r>
       <r>    -9.7300     0.0000     4.0000 </r>
       <r>    -9.7200     0.0000     4.0000 </r>
       <r>    -9.7100     0.0000     4.0000 </r>
       <r>    -9.7000     0.0000     4.0000 </r>
       <r>    -9.6900     0.0000     4.0000 </r>
       <r>    -9.6800     0.0000     4.0000 </r>
       <r>    -9.6700     0.0000     4.0000 </r>
       <r>    -9.6600     0.0000     4.0000 </r>
       <r>    -9.6500     0.0000     4.0000 </r>
       <r>    -9.6400     0.0000     4.0000 </r>
       <r>    -9.6300     0.0000     4.0000 </r>
       <r>    -9.6200     0.0000     4.0000 </r>
       <r>    -9.6100     0.0000     4.0000 </r>
       <r>    -9.6000     0.0000     4.0000 </r>
       <r>    -9.5900     0.0000     4.0000 </r>
       <r>    -9.5800     0.0000     4.0000 </r>
       <r>    -9.5700     0.0000     4.0000 </r>
       <r>    -9.5600     0.0000     4.0000 </r>
       <r>    -9.5500     0.0000     4.0000 </r>
       <r>    -9.5400     0.0000     4.0000 </r>
       <r>    -9.5300     0.0000     4.0000 </r>
       <r>    -9.5200     0.0000     4.0000 </r>
       <r>    -9.5100     0.0000     4.0000 </r>
       <r>    -9.5000     0.0000     4.0000 </r>
       <r>    -9.4900     0.0000     4.0000 </r>
       <r>    -9.4800     0.0000     4.0000 </r>
       <r>    -9.4700     0.0000     4.0000 </r>
       <r>    -9.4600     0.0000     4.0000 </r>
       <r>    -9.4500     0.0000     4.0000 </r>
       <r>    -9.4400     0.0000     4.0000 </r>
       <r>    -9.4300     0.0000     4.0000 </r>
       <r>    -9.4200     0.0000     4.0000 </r>
       <r>    -9.4100     0.0000     4.0000 </r>
       <r>    -9.4000     0.0000     4.0000 </r>
       <r>    -9.3900     0.0000     4.0000 </r>
       <r>    -9.3800     0.0000     4.0000 </r>
       <r>    -9.3700     0.0000     4.0000 </r>
       <r>    -9.3600     0.0000     4.0000 </r>
       <r>    -9.3500     0.0000     4.0000 </r>
       <r>    -9.3400     0.0000     4.0000 </r>
       <r>    -9.3300     0.0000     4.0000 </r>
       <r>    -9.3200     0.0000     4.0000 </r>
       <r>    -9.3100     0.0000     4.0000 </r>
       <r>    -9.3000     0.0000     4.0000 </r>
       <r>    -9.2900     0.0000     4.0000 </r>
       <r>    -9.2800     0.0000     4.0000 </r>
       <r>    -9.2700     0.0000     4.0000 </r>
       <r>    -9.2600     0.0000     4.0000 </r>
       <r>    -9.2500     0.0000     4.0000 </r>
       <r>    -9.2400     0.0000     4.0000 </r>
       <r>    -9.2300     0.0000     4.0000 </r>
       <r>    -9.2200     0.0000     4.0000 </r>
       <r>    -9.2100     0.0000     4.0000 </r>
       <r>    -9.2000     0.0000     4.0000 </r>
       <r>    -9.1900     0.0000     4.0000 </r>
       <r>    -9.1800     0.0000     4.0000 </r>
       <r>    -9.1700     0.0000     4.0000 </r>
       <r>    -9.1600     0.0000     4.0000 </r>
       <r>    -9.1500     0.0000     4.0000 </r>
       <r>    -9.1400     0.0000     4.0000 </r>
       <r>    -9.1300     0.0000     4.0000 </r>
       <r>    -9.1200     0.0000     4.0000 </r>
       <r>    -9.1100     0.0000     4.0000 </r>
       <r>    -9.1000     0.0000     4.0000 </r>
       <r>    -9.0900     0.0000     4.0000 </r>
       <r>    -9.0800     0.0000     4.0000 </r>
       <r>    -9.0700     0.0000     4.0000 </r>
       <r>    -9.0600     0.0000     4.0000 </r>
       <r>    -9.0500     0.0000     4.0000 </r>
       <r>    -9.0400     0.0000     4.0000 </r>
       <r>    -9.0300     0.0000     4.0000 </r>
       <r>    -9.0200     0.0000     4.0000 </r>
       <r>    -9.0100     0.0000     4.0000 </r>
       <r>    -9.0000     0.0000     4.0000 </r>
       <r>    -8.9900     0.0000     4.0000 </r>
       <r>    -8.9800     0.0000     4.0000 </r>
       <r>    -8.9700     0.0000     4.0000 </r>
       <r>    -8.9600     0.0000     4.0000 </r>
       <r>    -8.9500     0.0000     4.0000 </r>
       <r>    -8.9400     0.0000     4.0000 </r>
       <r>    -8.9300     0.0000     4.0000 </r>
       <r>    -8.9200     0.0000     4.0000 </r>
       <r>    -8.9100     0.0000     4.0000 </r>
       <r>    -8.9000     0.0000     4.0000 </r>
       <r>    -8.8900     0.0000     4.0000 </r>
       <r>    -8.8800     0.0000     4.0000 </r>
       <r>    -8.8700     0.0000     4.0000 </r>
       <r>    -8.8600     0.0000     4.0000 </r>
       <r>    -8.8500     0.0000     4.0000 </r>
       <r>    -8.8400     0.0000     4.0000 </r>
       <r>    -8.8300     0.0000     4.0000 </r>
       <r>    -8.8200     0.0000     4.0000 </r>
       <r>    -8.8100     0.0000     4.0000 </r>
       <r>    -8.8000     0.0000     4.0000 </r>
       <r>    -8.7900     0.0000     4.0000 </r>
       <r>    -8.7800     0.0000     4.0000 </r>
       <r>    -8.7700     0.0000     4.0000 </r>
       <r>    -8.7600     0.0000     4.0000 </r>
       <r>    -8.7500     0.0000     4.0000 </r>
       <r>    -8.7400     0.0000     4.0000 </r>
       <r>    -8.7300     0.0000     4.0000 </r>
       <r>    -8.7200     0.0000     4.0000 </r>
       <r>    -8.7100     0.0000     4.0000 </r>
       <r>    -8.7000     0.0000     4.0000 </r>
       <r>    -8.6900     0.0000     4.0000 </r>
       <r>    -8.6800     0.0000     4.0000 </r>
       <r>    -8.6700     0.0000     4.0000 </r>
       <r>    -8.6600     0.0000     4.0000 </r>
       <r>    -8.6500     0.0000     4.0000 </r>
       <r>    -8.6400     0.0000     4.0000 </r>
       <r>    -8.6300     0.0000     4.0000 </r>
       <r>    -8.6200     0.0000     4.0000 </r>
       <r>    -8.6100     0.0000     4.0000 </r>
       <r>    -8.6000     0.0000     4.0000 </r>
       <r>    -8.5900     0.0000     4.0000 </r>
       <r>    -8.5800     0.0000     4.0000 </r>
       <r>    -8.5700     0.0000     4.0000 </r>
       <r>    -8.5600     0.0000     4.0000 </r>
       <r>    -8.5500     0.0000     4.0000 </r>
       <r>    -8.5400     0.0000     4.0000 </r>
       <r>    -8.5300     0.0000     4.0000 </r>
       <r>    -8.5200     0.0000     4.0000 </r>
       <r>    -8.5100     0.0000     4.0000 </r>
       <r>    -8.5000     0.0000     4.0000 </r>
       <r>    -8.4900     0.0000     4.0000 </r>
       <r>    -8.4800     0.0000     4.0000 </r>
       <r>    -8.4700     0.0000     4.0000 </r>
       <r>    -8.4600     0.0000     4.0000 </r>
       <r>    -8.4500     0.0000     4.0000 </r>
       <r>    -8.4400     0.0000     4.0000 </r>
       <r>    -8.4300     0.0000     4.0000 </r>
       <r>    -8.4200     0.0000     4.0000 </r>
       <r>    -8.4100     0.0000     4.0000 </r>
       <r>    -8.4000     0.0000     4.0000 </r>
       <r>    -8.3900     0.0000     4.0000 </r>
       <r>    -8.3800     0.0000     4.0000 </r>
       <r>    -8.3700     0.0000     4.0000 </r>
       <r>    -8.3600     0.0000     4.0000 </r>
       <r>    -8.3500     0.0000     4.0000 </r>
       <r>    -8.3400     0.0000     4.0000 </r>
       <r>    -8.3300     0.0000     4.0000 </r>
       <r>    -8.3200     0.0000     4.0000 </r>
       <r>    -8.3100     0.0000     4.0000 </r>
       <r>    -8.3000     0.0000     4.0000 </r>
       <r>    -8.2900     0.0000     4.0000 </r>
       <r>    -8.2800     0.0000     4.0000 </r>
       <r>    -8.2700     0.0000     4.0000 </r>
       <r>    -8.2600     0.0000     4.0000 </r>
       <r>    -8.2500     0.0000     4.0000 </r>
       <r>    -8.2400     0.0001     4.0000 </r>
       <r>    -8.2300     0.0001     4.0000 </r>
       <r>    -8.2200     0.0001     4.0000 </r>
       <r>    -8.2100     0.0001     4.0000 </r>
       <r>    -8.2000     0.0002     4.0000 </r>
       <r>    -8.1900     0.0002     4.0000 </r>
       <r>    -8.1800     0.0003     4.0000 </r>
       <r>    -8.1700     0.0003     4.0000 </r>
       <r>    -8.1600     0.0005     4.0000 </r>
       <r>    -8.1500     0.0006     4.0000 </r>
       <r>    -8.1400     0.0007     4.0000 </r>
       <r>    -8.1300     0.0009     4.0000 </r>
       <r>    -8.1200     0.0012     4.0001 </r>
       <r>    -8.1100     0.0015     4.0001 </r>
       <r>    -8.1000     0.0019     4.0001 </r>
       <r>    -8.0900     0.0023     4.0001 </r>
       <r>    -8.0800     0.0029     4.0001 </r>
       <r>    -8.0700     0.0036     4.0002 </r>
       <r>    -8.0600     0.0044     4.0002 </r>
       <r>    -8.0500     0.0054     4.0003 </r>
       <r>    -8.0400     0.0066     4.0003 </r>
       <r>    -8.0300     0.0079     4.0004 </r>
       <r>    -8.0200     0.0096     4.0005 </r>
       <r>    -8.0100     0.0114     4.0006 </r>
       <r>    -8.0000     0.0137     4.0008 </r>
       <r>    -7.9900     0.0162     4.0009 </r>
       <r>    -7.9800     0.0192     4.0011 </r>
       <r>    -7.9700     0.0225     4.0013 </r>
       <r>    -7.9600     0.0264     4.0016 </r>
       <r>    -7.9500     0.0307     4.0019 </r>
       <r>    -7.9400     0.0356     4.0023 </r>
       <r>    -7.9300     0.0410     4.0027 </r>
       <r>    -7.9200     0.0471     4.0032 </r>
       <r>    -7.9100     0.0539     4.0037 </r>
       <r>    -7.9000     0.0613     4.0043 </r>
       <r>    -7.8900     0.0694     4.0050 </r>
       <r>    -7.8800     0.0783     4.0058 </r>
       <r>    -7.8700     0.0879     4.0067 </r>
       <r>    -7.8600     0.0982     4.0076 </r>
       <r>    -7.8500     0.1093     4.0087 </r>
       <r>    -7.8400     0.1212     4.0099 </r>
       <r>    -7.8300     0.1339     4.0113 </r>
       <r>    -7.8200     0.1473     4.0128 </r>
       <r>    -7.8100     0.1614     4.0144 </r>
       <r>    -7.8000     0.1763     4.0161 </r>
       <r>    -7.7900     0.1918     4.0181 </r>
       <r>    -7.7800     0.2081     4.0201 </r>
       <r>    -7.7700     0.2251     4.0224 </r>
       <r>    -7.7600     0.2428     4.0248 </r>
       <r>    -7.7500     0.2613     4.0274 </r>
       <r>    -7.7400     0.2805     4.0302 </r>
       <r>    -7.7300     0.3005     4.0332 </r>
       <r>    -7.7200     0.3214     4.0364 </r>
       <r>    -7.7100     0.3432     4.0399 </r>
       <r>    -7.7000     0.3661     4.0435 </r>
       <r>    -7.6900     0.3903     4.0474 </r>
       <r>    -7.6800     0.4157     4.0516 </r>
       <r>    -7.6700     0.4427     4.0560 </r>
       <r>    -7.6600     0.4713     4.0607 </r>
       <r>    -7.6500     0.5019     4.0658 </r>
       <r>    -7.6400     0.5346     4.0711 </r>
       <r>    -7.6300     0.5696     4.0768 </r>
       <r>    -7.6200     0.6071     4.0829 </r>
       <r>    -7.6100     0.6474     4.0893 </r>
       <r>    -7.6000     0.6907     4.0963 </r>
       <r>    -7.5900     0.7371     4.1036 </r>
       <r>    -7.5800     0.7869     4.1115 </r>
       <r>    -7.5700     0.8400     4.1199 </r>
       <r>    -7.5600     0.8966     4.1289 </r>
       <r>    -7.5500     0.9567     4.1384 </r>
       <r>    -7.5400     1.0202     4.1486 </r>
       <r>    -7.5300     1.0870     4.1595 </r>
       <r>    -7.5200     1.1570     4.1711 </r>
       <r>    -7.5100     1.2300     4.1834 </r>
       <r>    -7.5000     1.3055     4.1964 </r>
       <r>    -7.4900     1.3831     4.2103 </r>
       <r>    -7.4800     1.4626     4.2249 </r>
       <r>    -7.4700     1.5433     4.2403 </r>
       <r>    -7.4600     1.6246     4.2566 </r>
       <r>    -7.4500     1.7060     4.2736 </r>
       <r>    -7.4400     1.7868     4.2915 </r>
       <r>    -7.4300     1.8664     4.3102 </r>
       <r>    -7.4200     1.9441     4.3296 </r>
       <r>    -7.4100     2.0191     4.3498 </r>
       <r>    -7.4000     2.0910     4.3707 </r>
       <r>    -7.3900     2.1590     4.3923 </r>
       <r>    -7.3800     2.2226     4.4145 </r>
       <r>    -7.3700     2.2814     4.4373 </r>
       <r>    -7.3600     2.3349     4.4607 </r>
       <r>    -7.3500     2.3828     4.4845 </r>
       <r>    -7.3400     2.4249     4.5088 </r>
       <r>    -7.3300     2.4611     4.5334 </r>
       <r>    -7.3200     2.4914     4.5583 </r>
       <r>    -7.3100     2.5158     4.5834 </r>
       <r>    -7.3000     2.5347     4.6088 </r>
       <r>    -7.2900     2.5484     4.6343 </r>
       <r>    -7.2800     2.5573     4.6598 </r>
       <r>    -7.2700     2.5619     4.6855 </r>
       <r>    -7.2600     2.5630     4.7111 </r>
       <r>    -7.2500     2.5612     4.7367 </r>
       <r>    -7.2400     2.5573     4.7623 </r>
       <r>    -7.2300     2.5523     4.7878 </r>
       <r>    -7.2200     2.5468     4.8133 </r>
       <r>    -7.2100     2.5419     4.8387 </r>
       <r>    -7.2000     2.5384     4.8641 </r>
       <r>    -7.1900     2.5372     4.8894 </r>
       <r>    -7.1800     2.5392     4.9148 </r>
       <r>    -7.1700     2.5449     4.9403 </r>
       <r>    -7.1600     2.5553     4.9658 </r>
       <r>    -7.1500     2.5709     4.9915 </r>
       <r>    -7.1400     2.5921     5.0175 </r>
       <r>    -7.1300     2.6194     5.0437 </r>
       <r>    -7.1200     2.6531     5.0702 </r>
       <r>    -7.1100     2.6933     5.0971 </r>
       <r>    -7.1000     2.7399     5.1245 </r>
       <r>    -7.0900     2.7930     5.1525 </r>
       <r>    -7.0800     2.8521     5.1810 </r>
       <r>    -7.0700     2.9169     5.2101 </r>
       <r>    -7.0600     2.9870     5.2400 </r>
       <r>    -7.0500     3.0616     5.2706 </r>
       <r>    -7.0400     3.1400     5.3020 </r>
       <r>    -7.0300     3.2214     5.3342 </r>
       <r>    -7.0200     3.3050     5.3673 </r>
       <r>    -7.0100     3.3896     5.4012 </r>
       <r>    -7.0000     3.4744     5.4359 </r>
       <r>    -6.9900     3.5582     5.4715 </r>
       <r>    -6.9800     3.6400     5.5079 </r>
       <r>    -6.9700     3.7188     5.5451 </r>
       <r>    -6.9600     3.7935     5.5830 </r>
       <r>    -6.9500     3.8630     5.6217 </r>
       <r>    -6.9400     3.9265     5.6609 </r>
       <r>    -6.9300     3.9831     5.7008 </r>
       <r>    -6.9200     4.0318     5.7411 </r>
       <r>    -6.9100     4.0720     5.7818 </r>
       <r>    -6.9000     4.1030     5.8228 </r>
       <r>    -6.8900     4.1242     5.8641 </r>
       <r>    -6.8800     4.1352     5.9054 </r>
       <r>    -6.8700     4.1356     5.9468 </r>
       <r>    -6.8600     4.1251     5.9880 </r>
       <r>    -6.8500     4.1036     6.0291 </r>
       <r>    -6.8400     4.0710     6.0698 </r>
       <r>    -6.8300     4.0275     6.1101 </r>
       <r>    -6.8200     3.9732     6.1498 </r>
       <r>    -6.8100     3.9084     6.1889 </r>
       <r>    -6.8000     3.8335     6.2272 </r>
       <r>    -6.7900     3.7490     6.2647 </r>
       <r>    -6.7800     3.6554     6.3012 </r>
       <r>    -6.7700     3.5535     6.3368 </r>
       <r>    -6.7600     3.4438     6.3712 </r>
       <r>    -6.7500     3.3273     6.4045 </r>
       <r>    -6.7400     3.2049     6.4365 </r>
       <r>    -6.7300     3.0773     6.4673 </r>
       <r>    -6.7200     2.9456     6.4968 </r>
       <r>    -6.7100     2.8108     6.5249 </r>
       <r>    -6.7000     2.6738     6.5516 </r>
       <r>    -6.6900     2.5356     6.5770 </r>
       <r>    -6.6800     2.3972     6.6009 </r>
       <r>    -6.6700     2.2597     6.6235 </r>
       <r>    -6.6600     2.1238     6.6448 </r>
       <r>    -6.6500     1.9906     6.6647 </r>
       <r>    -6.6400     1.8608     6.6833 </r>
       <r>    -6.6300     1.7352     6.7006 </r>
       <r>    -6.6200     1.6146     6.7168 </r>
       <r>    -6.6100     1.4996     6.7318 </r>
       <r>    -6.6000     1.3907     6.7457 </r>
       <r>    -6.5900     1.2883     6.7586 </r>
       <r>    -6.5800     1.1929     6.7705 </r>
       <r>    -6.5700     1.1047     6.7816 </r>
       <r>    -6.5600     1.0239     6.7918 </r>
       <r>    -6.5500     0.9505     6.8013 </r>
       <r>    -6.5400     0.8846     6.8101 </r>
       <r>    -6.5300     0.8261     6.8184 </r>
       <r>    -6.5200     0.7748     6.8262 </r>
       <r>    -6.5100     0.7304     6.8335 </r>
       <r>    -6.5000     0.6926     6.8404 </r>
       <r>    -6.4900     0.6611     6.8470 </r>
       <r>    -6.4800     0.6355     6.8534 </r>
       <r>    -6.4700     0.6152     6.8595 </r>
       <r>    -6.4600     0.5998     6.8655 </r>
       <r>    -6.4500     0.5888     6.8714 </r>
       <r>    -6.4400     0.5816     6.8772 </r>
       <r>    -6.4300     0.5777     6.8830 </r>
       <r>    -6.4200     0.5767     6.8887 </r>
       <r>    -6.4100     0.5780     6.8945 </r>
       <r>    -6.4000     0.5812     6.9003 </r>
       <r>    -6.3900     0.5858     6.9062 </r>
       <r>    -6.3800     0.5916     6.9121 </r>
       <r>    -6.3700     0.5982     6.9181 </r>
       <r>    -6.3600     0.6054     6.9241 </r>
       <r>    -6.3500     0.6129     6.9303 </r>
       <r>    -6.3400     0.6208     6.9365 </r>
       <r>    -6.3300     0.6290     6.9428 </r>
       <r>    -6.3200     0.6375     6.9492 </r>
       <r>    -6.3100     0.6465     6.9556 </r>
       <r>    -6.3000     0.6561     6.9622 </r>
       <r>    -6.2900     0.6666     6.9688 </r>
       <r>    -6.2800     0.6784     6.9756 </r>
       <r>    -6.2700     0.6917     6.9825 </r>
       <r>    -6.2600     0.7070     6.9896 </r>
       <r>    -6.2500     0.7247     6.9969 </r>
       <r>    -6.2400     0.7454     7.0043 </r>
       <r>    -6.2300     0.7694     7.0120 </r>
       <r>    -6.2200     0.7973     7.0200 </r>
       <r>    -6.2100     0.8295     7.0283 </r>
       <r>    -6.2000     0.8664     7.0369 </r>
       <r>    -6.1900     0.9084     7.0460 </r>
       <r>    -6.1800     0.9560     7.0556 </r>
       <r>    -6.1700     1.0093     7.0657 </r>
       <r>    -6.1600     1.0687     7.0764 </r>
       <r>    -6.1500     1.1343     7.0877 </r>
       <r>    -6.1400     1.2062     7.0998 </r>
       <r>    -6.1300     1.2843     7.1126 </r>
       <r>    -6.1200     1.3687     7.1263 </r>
       <r>    -6.1100     1.4591     7.1409 </r>
       <r>    -6.1000     1.5554     7.1564 </r>
       <r>    -6.0900     1.6572     7.1730 </r>
       <r>    -6.0800     1.7641     7.1907 </r>
       <r>    -6.0700     1.8756     7.2094 </r>
       <r>    -6.0600     1.9912     7.2293 </r>
       <r>    -6.0500     2.1103     7.2504 </r>
       <r>    -6.0400     2.2323     7.2728 </r>
       <r>    -6.0300     2.3565     7.2963 </r>
       <r>    -6.0200     2.4821     7.3211 </r>
       <r>    -6.0100     2.6083     7.3472 </r>
       <r>    -6.0000     2.7345     7.3746 </r>
       <r>    -5.9900     2.8598     7.4032 </r>
       <r>    -5.9800     2.9834     7.4330 </r>
       <r>    -5.9700     3.1045     7.4640 </r>
       <r>    -5.9600     3.2223     7.4963 </r>
       <r>    -5.9500     3.3361     7.5296 </r>
       <r>    -5.9400     3.4451     7.5641 </r>
       <r>    -5.9300     3.5487     7.5996 </r>
       <r>    -5.9200     3.6461     7.6360 </r>
       <r>    -5.9100     3.7368     7.6734 </r>
       <r>    -5.9000     3.8201     7.7116 </r>
       <r>    -5.8900     3.8956     7.7506 </r>
       <r>    -5.8800     3.9628     7.7902 </r>
       <r>    -5.8700     4.0214     7.8304 </r>
       <r>    -5.8600     4.0710     7.8711 </r>
       <r>    -5.8500     4.1114     7.9122 </r>
       <r>    -5.8400     4.1425     7.9536 </r>
       <r>    -5.8300     4.1642     7.9953 </r>
       <r>    -5.8200     4.1765     8.0370 </r>
       <r>    -5.8100     4.1796     8.0788 </r>
       <r>    -5.8000     4.1737     8.1206 </r>
       <r>    -5.7900     4.1590     8.1622 </r>
       <r>    -5.7800     4.1358     8.2035 </r>
       <r>    -5.7700     4.1047     8.2446 </r>
       <r>    -5.7600     4.0661     8.2852 </r>
       <r>    -5.7500     4.0206     8.3254 </r>
       <r>    -5.7400     3.9686     8.3651 </r>
       <r>    -5.7300     3.9110     8.4042 </r>
       <r>    -5.7200     3.8482     8.4427 </r>
       <r>    -5.7100     3.7810     8.4805 </r>
       <r>    -5.7000     3.7100     8.5176 </r>
       <r>    -5.6900     3.6358     8.5540 </r>
       <r>    -5.6800     3.5592     8.5896 </r>
       <r>    -5.6700     3.4805     8.6244 </r>
       <r>    -5.6600     3.4005     8.6584 </r>
       <r>    -5.6500     3.3195     8.6916 </r>
       <r>    -5.6400     3.2380     8.7240 </r>
       <r>    -5.6300     3.1564     8.7555 </r>
       <r>    -5.6200     3.0749     8.7863 </r>
       <r>    -5.6100     2.9939     8.8162 </r>
       <r>    -5.6000     2.9135     8.8454 </r>
       <r>    -5.5900     2.8339     8.8737 </r>
       <r>    -5.5800     2.7552     8.9012 </r>
       <r>    -5.5700     2.6775     8.9280 </r>
       <r>    -5.5600     2.6009     8.9540 </r>
       <r>    -5.5500     2.5254     8.9793 </r>
       <r>    -5.5400     2.4512     9.0038 </r>
       <r>    -5.5300     2.3784     9.0276 </r>
       <r>    -5.5200     2.3070     9.0506 </r>
       <r>    -5.5100     2.2374     9.0730 </r>
       <r>    -5.5000     2.1697     9.0947 </r>
       <r>    -5.4900     2.1043     9.1158 </r>
       <r>    -5.4800     2.0415     9.1362 </r>
       <r>    -5.4700     1.9817     9.1560 </r>
       <r>    -5.4600     1.9256     9.1753 </r>
       <r>    -5.4500     1.8737     9.1940 </r>
       <r>    -5.4400     1.8267     9.2123 </r>
       <r>    -5.4300     1.7852     9.2301 </r>
       <r>    -5.4200     1.7500     9.2476 </r>
       <r>    -5.4100     1.7219     9.2648 </r>
       <r>    -5.4000     1.7017     9.2818 </r>
       <r>    -5.3900     1.6902     9.2987 </r>
       <r>    -5.3800     1.6881     9.3156 </r>
       <r>    -5.3700     1.6961     9.3326 </r>
       <r>    -5.3600     1.7149     9.3497 </r>
       <r>    -5.3500     1.7450     9.3672 </r>
       <r>    -5.3400     1.7869     9.3851 </r>
       <r>    -5.3300     1.8409     9.4035 </r>
       <r>    -5.3200     1.9072     9.4225 </r>
       <r>    -5.3100     1.9857     9.4424 </r>
       <r>    -5.3000     2.0764     9.4632 </r>
       <r>    -5.2900     2.1788     9.4849 </r>
       <r>    -5.2800     2.2924     9.5079 </r>
       <r>    -5.2700     2.4165     9.5320 </r>
       <r>    -5.2600     2.5502     9.5575 </r>
       <r>    -5.2500     2.6924     9.5845 </r>
       <r>    -5.2400     2.8419     9.6129 </r>
       <r>    -5.2300     2.9972     9.6429 </r>
       <r>    -5.2200     3.1568     9.6744 </r>
       <r>    -5.2100     3.3191     9.7076 </r>
       <r>    -5.2000     3.4823     9.7424 </r>
       <r>    -5.1900     3.6446     9.7789 </r>
       <r>    -5.1800     3.8042     9.8169 </r>
       <r>    -5.1700     3.9594     9.8565 </r>
       <r>    -5.1600     4.1083     9.8976 </r>
       <r>    -5.1500     4.2492     9.9401 </r>
       <r>    -5.1400     4.3807     9.9839 </r>
       <r>    -5.1300     4.5011    10.0289 </r>
       <r>    -5.1200     4.6092    10.0750 </r>
       <r>    -5.1100     4.7038    10.1220 </r>
       <r>    -5.1000     4.7840    10.1699 </r>
       <r>    -5.0900     4.8490    10.2184 </r>
       <r>    -5.0800     4.8983    10.2674 </r>
       <r>    -5.0700     4.9315    10.3167 </r>
       <r>    -5.0600     4.9486    10.3662 </r>
       <r>    -5.0500     4.9495    10.4156 </r>
       <r>    -5.0400     4.9347    10.4650 </r>
       <r>    -5.0300     4.9045    10.5140 </r>
       <r>    -5.0200     4.8595    10.5626 </r>
       <r>    -5.0100     4.8006    10.6106 </r>
       <r>    -5.0000     4.7286    10.6579 </r>
       <r>    -4.9900     4.6445    10.7044 </r>
       <r>    -4.9800     4.5493    10.7499 </r>
       <r>    -4.9700     4.4443    10.7943 </r>
       <r>    -4.9600     4.3306    10.8376 </r>
       <r>    -4.9500     4.2093    10.8797 </r>
       <r>    -4.9400     4.0817    10.9205 </r>
       <r>    -4.9300     3.9489    10.9600 </r>
       <r>    -4.9200     3.8122    10.9981 </r>
       <r>    -4.9100     3.6726    11.0349 </r>
       <r>    -4.9000     3.5313    11.0702 </r>
       <r>    -4.8900     3.3892    11.1041 </r>
       <r>    -4.8800     3.2474    11.1365 </r>
       <r>    -4.8700     3.1068    11.1676 </r>
       <r>    -4.8600     2.9683    11.1973 </r>
       <r>    -4.8500     2.8326    11.2256 </r>
       <r>    -4.8400     2.7007    11.2526 </r>
       <r>    -4.8300     2.5731    11.2784 </r>
       <r>    -4.8200     2.4506    11.3029 </r>
       <r>    -4.8100     2.3337    11.3262 </r>
       <r>    -4.8000     2.2230    11.3484 </r>
       <r>    -4.7900     2.1190    11.3696 </r>
       <r>    -4.7800     2.0221    11.3898 </r>
       <r>    -4.7700     1.9326    11.4092 </r>
       <r>    -4.7600     1.8508    11.4277 </r>
       <r>    -4.7500     1.7770    11.4454 </r>
       <r>    -4.7400     1.7112    11.4626 </r>
       <r>    -4.7300     1.6537    11.4791 </r>
       <r>    -4.7200     1.6044    11.4951 </r>
       <r>    -4.7100     1.5632    11.5108 </r>
       <r>    -4.7000     1.5299    11.5261 </r>
       <r>    -4.6900     1.5044    11.5411 </r>
       <r>    -4.6800     1.4864    11.5560 </r>
       <r>    -4.6700     1.4754    11.5707 </r>
       <r>    -4.6600     1.4711    11.5854 </r>
       <r>    -4.6500     1.4729    11.6002 </r>
       <r>    -4.6400     1.4803    11.6150 </r>
       <r>    -4.6300     1.4927    11.6299 </r>
       <r>    -4.6200     1.5095    11.6450 </r>
       <r>    -4.6100     1.5299    11.6603 </r>
       <r>    -4.6000     1.5534    11.6758 </r>
       <r>    -4.5900     1.5791    11.6916 </r>
       <r>    -4.5800     1.6065    11.7077 </r>
       <r>    -4.5700     1.6347    11.7240 </r>
       <r>    -4.5600     1.6633    11.7407 </r>
       <r>    -4.5500     1.6914    11.7576 </r>
       <r>    -4.5400     1.7185    11.7748 </r>
       <r>    -4.5300     1.7440    11.7922 </r>
       <r>    -4.5200     1.7673    11.8099 </r>
       <r>    -4.5100     1.7881    11.8278 </r>
       <r>    -4.5000     1.8059    11.8458 </r>
       <r>    -4.4900     1.8203    11.8640 </r>
       <r>    -4.4800     1.8310    11.8823 </r>
       <r>    -4.4700     1.8378    11.9007 </r>
       <r>    -4.4600     1.8404    11.9191 </r>
       <r>    -4.4500     1.8388    11.9375 </r>
       <r>    -4.4400     1.8329    11.9558 </r>
       <r>    -4.4300     1.8226    11.9740 </r>
       <r>    -4.4200     1.8081    11.9921 </r>
       <r>    -4.4100     1.7893    12.0100 </r>
       <r>    -4.4000     1.7666    12.0277 </r>
       <r>    -4.3900     1.7400    12.0451 </r>
       <r>    -4.3800     1.7098    12.0622 </r>
       <r>    -4.3700     1.6763    12.0789 </r>
       <r>    -4.3600     1.6399    12.0953 </r>
       <r>    -4.3500     1.6009    12.1114 </r>
       <r>    -4.3400     1.5598    12.1270 </r>
       <r>    -4.3300     1.5170    12.1421 </r>
       <r>    -4.3200     1.4730    12.1569 </r>
       <r>    -4.3100     1.4285    12.1711 </r>
       <r>    -4.3000     1.3839    12.1850 </r>
       <r>    -4.2900     1.3398    12.1984 </r>
       <r>    -4.2800     1.2969    12.2113 </r>
       <r>    -4.2700     1.2558    12.2239 </r>
       <r>    -4.2600     1.2172    12.2361 </r>
       <r>    -4.2500     1.1818    12.2479 </r>
       <r>    -4.2400     1.1503    12.2594 </r>
       <r>    -4.2300     1.1233    12.2706 </r>
       <r>    -4.2200     1.1016    12.2816 </r>
       <r>    -4.2100     1.0858    12.2925 </r>
       <r>    -4.2000     1.0765    12.3033 </r>
       <r>    -4.1900     1.0743    12.3140 </r>
       <r>    -4.1800     1.0800    12.3248 </r>
       <r>    -4.1700     1.0939    12.3358 </r>
       <r>    -4.1600     1.1165    12.3469 </r>
       <r>    -4.1500     1.1483    12.3584 </r>
       <r>    -4.1400     1.1895    12.3703 </r>
       <r>    -4.1300     1.2405    12.3827 </r>
       <r>    -4.1200     1.3015    12.3957 </r>
       <r>    -4.1100     1.3724    12.4094 </r>
       <r>    -4.1000     1.4533    12.4240 </r>
       <r>    -4.0900     1.5440    12.4394 </r>
       <r>    -4.0800     1.6443    12.4559 </r>
       <r>    -4.0700     1.7540    12.4734 </r>
       <r>    -4.0600     1.8724    12.4921 </r>
       <r>    -4.0500     1.9992    12.5121 </r>
       <r>    -4.0400     2.1337    12.5334 </r>
       <r>    -4.0300     2.2751    12.5562 </r>
       <r>    -4.0200     2.4226    12.5804 </r>
       <r>    -4.0100     2.5754    12.6062 </r>
       <r>    -4.0000     2.7323    12.6335 </r>
       <r>    -3.9900     2.8925    12.6624 </r>
       <r>    -3.9800     3.0549    12.6930 </r>
       <r>    -3.9700     3.2182    12.7252 </r>
       <r>    -3.9600     3.3813    12.7590 </r>
       <r>    -3.9500     3.5431    12.7944 </r>
       <r>    -3.9400     3.7024    12.8314 </r>
       <r>    -3.9300     3.8581    12.8700 </r>
       <r>    -3.9200     4.0090    12.9101 </r>
       <r>    -3.9100     4.1539    12.9516 </r>
       <r>    -3.9000     4.2919    12.9946 </r>
       <r>    -3.8900     4.4219    13.0388 </r>
       <r>    -3.8800     4.5430    13.0842 </r>
       <r>    -3.8700     4.6542    13.1307 </r>
       <r>    -3.8600     4.7549    13.1783 </r>
       <r>    -3.8500     4.8444    13.2267 </r>
       <r>    -3.8400     4.9218    13.2760 </r>
       <r>    -3.8300     4.9869    13.3258 </r>
       <r>    -3.8200     5.0391    13.3762 </r>
       <r>    -3.8100     5.0781    13.4270 </r>
       <r>    -3.8000     5.1037    13.4780 </r>
       <r>    -3.7900     5.1158    13.5292 </r>
       <r>    -3.7800     5.1143    13.5803 </r>
       <r>    -3.7700     5.0993    13.6313 </r>
       <r>    -3.7600     5.0710    13.6820 </r>
       <r>    -3.7500     5.0296    13.7323 </r>
       <r>    -3.7400     4.9756    13.7821 </r>
       <r>    -3.7300     4.9094    13.8312 </r>
       <r>    -3.7200     4.8316    13.8795 </r>
       <r>    -3.7100     4.7428    13.9269 </r>
       <r>    -3.7000     4.6436    13.9734 </r>
       <r>    -3.6900     4.5350    14.0187 </r>
       <r>    -3.6800     4.4178    14.0629 </r>
       <r>    -3.6700     4.2928    14.1058 </r>
       <r>    -3.6600     4.1612    14.1474 </r>
       <r>    -3.6500     4.0238    14.1877 </r>
       <r>    -3.6400     3.8818    14.2265 </r>
       <r>    -3.6300     3.7363    14.2638 </r>
       <r>    -3.6200     3.5884    14.2997 </r>
       <r>    -3.6100     3.4391    14.3341 </r>
       <r>    -3.6000     3.2897    14.3670 </r>
       <r>    -3.5900     3.1413    14.3984 </r>
       <r>    -3.5800     2.9949    14.4284 </r>
       <r>    -3.5700     2.8516    14.4569 </r>
       <r>    -3.5600     2.7124    14.4840 </r>
       <r>    -3.5500     2.5783    14.5098 </r>
       <r>    -3.5400     2.4502    14.5343 </r>
       <r>    -3.5300     2.3290    14.5576 </r>
       <r>    -3.5200     2.2154    14.5798 </r>
       <r>    -3.5100     2.1100    14.6009 </r>
       <r>    -3.5000     2.0136    14.6210 </r>
       <r>    -3.4900     1.9265    14.6403 </r>
       <r>    -3.4800     1.8492    14.6587 </r>
       <r>    -3.4700     1.7819    14.6766 </r>
       <r>    -3.4600     1.7249    14.6938 </r>
       <r>    -3.4500     1.6783    14.7106 </r>
       <r>    -3.4400     1.6419    14.7270 </r>
       <r>    -3.4300     1.6157    14.7432 </r>
       <r>    -3.4200     1.5993    14.7592 </r>
       <r>    -3.4100     1.5925    14.7751 </r>
       <r>    -3.4000     1.5947    14.7910 </r>
       <r>    -3.3900     1.6054    14.8071 </r>
       <r>    -3.3800     1.6240    14.8233 </r>
       <r>    -3.3700     1.6497    14.8398 </r>
       <r>    -3.3600     1.6817    14.8566 </r>
       <r>    -3.3500     1.7192    14.8738 </r>
       <r>    -3.3400     1.7612    14.8914 </r>
       <r>    -3.3300     1.8069    14.9095 </r>
       <r>    -3.3200     1.8552    14.9281 </r>
       <r>    -3.3100     1.9052    14.9471 </r>
       <r>    -3.3000     1.9560    14.9667 </r>
       <r>    -3.2900     2.0067    14.9867 </r>
       <r>    -3.2800     2.0563    15.0073 </r>
       <r>    -3.2700     2.1042    15.0284 </r>
       <r>    -3.2600     2.1496    15.0498 </r>
       <r>    -3.2500     2.1918    15.0718 </r>
       <r>    -3.2400     2.2304    15.0941 </r>
       <r>    -3.2300     2.2649    15.1167 </r>
       <r>    -3.2200     2.2950    15.1397 </r>
       <r>    -3.2100     2.3206    15.1629 </r>
       <r>    -3.2000     2.3415    15.1863 </r>
       <r>    -3.1900     2.3579    15.2099 </r>
       <r>    -3.1800     2.3698    15.2336 </r>
       <r>    -3.1700     2.3776    15.2573 </r>
       <r>    -3.1600     2.3816    15.2812 </r>
       <r>    -3.1500     2.3824    15.3050 </r>
       <r>    -3.1400     2.3803    15.3288 </r>
       <r>    -3.1300     2.3761    15.3525 </r>
       <r>    -3.1200     2.3703    15.3763 </r>
       <r>    -3.1100     2.3635    15.3999 </r>
       <r>    -3.1000     2.3564    15.4235 </r>
       <r>    -3.0900     2.3497    15.4469 </r>
       <r>    -3.0800     2.3439    15.4704 </r>
       <r>    -3.0700     2.3397    15.4938 </r>
       <r>    -3.0600     2.3375    15.5172 </r>
       <r>    -3.0500     2.3377    15.5405 </r>
       <r>    -3.0400     2.3408    15.5639 </r>
       <r>    -3.0300     2.3470    15.5874 </r>
       <r>    -3.0200     2.3565    15.6110 </r>
       <r>    -3.0100     2.3694    15.6347 </r>
       <r>    -3.0000     2.3857    15.6585 </r>
       <r>    -2.9900     2.4054    15.6826 </r>
       <r>    -2.9800     2.4282    15.7069 </r>
       <r>    -2.9700     2.4539    15.7314 </r>
       <r>    -2.9600     2.4823    15.7562 </r>
       <r>    -2.9500     2.5128    15.7814 </r>
       <r>    -2.9400     2.5452    15.8068 </r>
       <r>    -2.9300     2.5787    15.8326 </r>
       <r>    -2.9200     2.6131    15.8587 </r>
       <r>    -2.9100     2.6477    15.8852 </r>
       <r>    -2.9000     2.6819    15.9120 </r>
       <r>    -2.8900     2.7153    15.9392 </r>
       <r>    -2.8800     2.7473    15.9666 </r>
       <r>    -2.8700     2.7774    15.9944 </r>
       <r>    -2.8600     2.8052    16.0225 </r>
       <r>    -2.8500     2.8303    16.0508 </r>
       <r>    -2.8400     2.8523    16.0793 </r>
       <r>    -2.8300     2.8710    16.1080 </r>
       <r>    -2.8200     2.8861    16.1369 </r>
       <r>    -2.8100     2.8975    16.1658 </r>
       <r>    -2.8000     2.9052    16.1949 </r>
       <r>    -2.7900     2.9093    16.2240 </r>
       <r>    -2.7800     2.9097    16.2531 </r>
       <r>    -2.7700     2.9067    16.2822 </r>
       <r>    -2.7600     2.9006    16.3112 </r>
       <r>    -2.7500     2.8916    16.3401 </r>
       <r>    -2.7400     2.8802    16.3689 </r>
       <r>    -2.7300     2.8668    16.3975 </r>
       <r>    -2.7200     2.8518    16.4261 </r>
       <r>    -2.7100     2.8357    16.4544 </r>
       <r>    -2.7000     2.8191    16.4826 </r>
       <r>    -2.6900     2.8023    16.5106 </r>
       <r>    -2.6800     2.7860    16.5385 </r>
       <r>    -2.6700     2.7705    16.5662 </r>
       <r>    -2.6600     2.7563    16.5938 </r>
       <r>    -2.6500     2.7437    16.6212 </r>
       <r>    -2.6400     2.7330    16.6485 </r>
       <r>    -2.6300     2.7243    16.6758 </r>
       <r>    -2.6200     2.7179    16.7030 </r>
       <r>    -2.6100     2.7136    16.7301 </r>
       <r>    -2.6000     2.7114    16.7572 </r>
       <r>    -2.5900     2.7112    16.7843 </r>
       <r>    -2.5800     2.7125    16.8114 </r>
       <r>    -2.5700     2.7152    16.8386 </r>
       <r>    -2.5600     2.7186    16.8658 </r>
       <r>    -2.5500     2.7222    16.8930 </r>
       <r>    -2.5400     2.7255    16.9203 </r>
       <r>    -2.5300     2.7278    16.9475 </r>
       <r>    -2.5200     2.7284    16.9748 </r>
[...]
        <r>  0.0072  0.0713  0.0134  0.0405  0.0000  0.0000  0.0000  0.0000  0.0000 </r>
        <r>  0.0072  0.0713  0.0134  0.0405  0.0000  0.0000  0.0000  0.0000  0.0000 </r>
       </set>
       <set comment="band 11">
        <r>  0.0059  0.0061  0.0000  0.0055  0.2850  0.0000  0.0991  0.0000  0.1012 </r>
        <r>  0.0007  0.0397  0.0049  0.0956  0.0000  0.0000  0.0000  0.0000  0.0000 </r>
        <r>  0.0007  0.0397  0.0049  0.0956  0.0000  0.0000  0.0000  0.0000  0.0000 </r>
       </set>
       <set comment="band 12">
        <r>  0.0000  0.0000  0.0002  0.0000  0.0000  0.2432  0.0000  0.3034  0.0000 </r>
        <r>  0.0257  0.0395  0.0135  0.0145  0.0000  0.0000  0.0000  0.0000  0.0000 </r>
        <r>  0.0257  0.0396  0.0135  0.0145  0.0000  0.0000  0.0000  0.0000  0.0000 </r>
       </set>
       <set comment="band 13">
        <r>  0.0000  0.0000  0.0027  0.0000  0.0000  0.2524  0.0000  0.1916  0.0000 </r>
        <r>  0.0025  0.0406  0.0086  0.1196  0.0000  0.0000  0.0000  0.0000  0.0000 </r>
        <r>  0.0025  0.0406  0.0086  0.1196  0.0000  0.0000  0.0000  0.0000  0.0000 </r>
       </set>
       <set comment="band 14">
        <r>  0.0072  0.0037  0.0000  0.0018  0.0014  0.0000  0.0207  0.0000  0.0036 </r>
        <r>  0.0067  0.0053  0.0050  0.0019  0.0000  0.0000  0.0000  0.0000  0.0000 </r>
        <r>  0.0067  0.0053  0.0051  0.0019  0.0000  0.0000  0.0000  0.0000  0.0000 </r>
       </set>
      </set>
      <set comment="kpoint 7">
       <set comment="band 1">
        <r>  0.0576  0.0184  0.0000  0.0166  0.0142  0.0000  0.0008  0.0000  0.0116 </r>
        <r>  0.3024  0.0013  0.0053  0.0010  0.0000  0.0000  0.0000  0.0000  0.0000 </r>
        <r>  0.3024  0.0013  0.0053  0.0010  0.0000  0.0000  0.0000  0.0000  0.0000 </r>
       </set>
       <set comment="band 2">
        <r>  0.0000  0.0000  0.0239  0.0000  0.0000  0.0400  0.0000  0.0372  0.0000 </r>
        <r>  0.3250  0.0007  0.0018  0.0006  0.0000  0.0000  0.0000  0.0000  0.0000 </r>
        <r>  0.3250  0.0007  0.0018  0.0006  0.0000  0.0000  0.0000  0.0000  0.0000 </r>
       </set>
       <set comment="band 3">
        <r>  0.0219  0.0058  0.0000  0.0251  0.1216  0.0000  0.0657  0.0000  0.1286 </r>
        <r>  0.0017  0.0523  0.0478  0.0482  0.0000  0.0000  0.0000  0.0000  0.0000 </r>
        <r>  0.0017  0.0523  0.0478  0.0482  0.0000  0.0000  0.0000  0.0000  0.0000 </r>
       </set>
       <set comment="band 4">
        <r>  0.0000  0.0000  0.0208  0.0000  0.0000  0.0062  0.0000  0.2847  0.0000 </r>
        <r>  0.0062  0.0662  0.0150  0.0979  0.0000  0.0000  0.0000  0.0000  0.0000 </r>
        <r>  0.0062  0.0662  0.0150  0.0979  0.0000  0.0000  0.0000  0.0000  0.0000 </r>
       </set>
       <set comment="band 5">
        <r>  0.1216  0.0191  0.0000  0.0235  0.0288  0.0000  0.0522  0.0000  0.0057 </r>
        <r>  0.0328  0.0238  0.1106  0.0311  0.0000  0.0000  0.0000  0.0000  0.0000 </r>
        <r>  0.0328  0.0238  0.1106  0.0311  0.0000  0.0000  0.0000  0.0000  0.0000 </r>
       </set>
       <set comment="band 6">
        <r>  0.0000  0.0000  0.0056  0.0000  0.0000  0.3934  0.0000  0.0047  0.0000 </r>
        <r>  0.0029  0.0869  0.0506  0.0342  0.0000  0.0000  0.0000  0.0000  0.0000 </r>
        <r>  0.0029  0.0869  0.0506  0.0342  0.0000  0.0000  0.0000  0.0000  0.0000 </r>
       </set>
       <set comment="band 7">
        <r>  0.0135  0.0434  0.0000  0.0225  0.0266  0.0000  0.1133  0.0000  0.1178 </r>
        <r>  0.0016  0.0794  0.0035  0.0967  0.0000  0.0000  0.0000  0.0000  0.0000 </r>
        <r>  0.0016  0.0794  0.0035  0.0967  0.0000  0.0000  0.0000  0.0000  0.0000 </r>
       </set>
       <set comment="band 8">
        <r>  0.0000  0.0000  0.0647  0.0000  0.0000  0.0064  0.0000  0.0674  0.0000 </r>
        <r>  0.0087  0.0383  0.1534  0.0651  0.0000  0.0000  0.0000  0.0000  0.0000 </r>
        <r>  0.0087  0.0383  0.1533  0.0651  0.0000  0.0000  0.0000  0.0000  0.0000 </r>
       </set>
       <set comment="band 9">
        <r>  0.0025  0.0077  0.0000  0.0016  0.2466  0.0000  0.2341  0.0000  0.1594 </r>
        <r>  0.0043  0.0375  0.0216  0.0219  0.0000  0.0000  0.0000  0.0000  0.0000 </r>
        <r>  0.0043  0.0375  0.0216  0.0219  0.0000  0.0000  0.0000  0.0000  0.0000 </r>
       </set>
       <set comment="band 10">
        <r>  0.0080  0.0088  0.0000  0.0051  0.1224  0.0000  0.0883  0.0000  0.3459 </r>
        <r>  0.0034  0.0445  0.0233  0.0137  0.0000  0.0000  0.0000  0.0000  0.0000 </r>
        <r>  0.0034  0.0445  0.0233  0.0137  0.0000  0.0000  0.0000  0.0000  0.0000 </r>
       </set>
       <set comment="band 11">
        <r>  0.0114  0.0028  0.0000  0.0006  0.3143  0.0000  0.3113  0.0000  0.0885 </r>
        <r>  0.0004  0.0205  0.0071  0.0399  0.0000  0.0000  0.0000  0.0000  0.0000 </r>
        <r>  0.0004  0.0205  0.0071  0.0399  0.0000  0.0000  0.0000  0.0000  0.0000 </r>
       </set>
       <set comment="band 12">
        <r>  0.0000  0.0000  0.0065  0.0000  0.0000  0.1057  0.0000  0.4326  0.0000 </r>
        <r>  0.0211  0.0366  0.0268  0.0058  0.0000  0.0000  0.0000  0.0000  0.0000 </r>
        <r>  0.0211  0.0366  0.0268  0.0058  0.0000  0.0000  0.0000  0.0000  0.0000 </r>
       </set>
       <set comment="band 13">
        <r>  0.0000  0.0000  0.0026  0.0000  0.0000  0.3983  0.0000  0.0885  0.0000 </r>
        <r>  0.0083  0.0430  0.0288  0.0702  0.0000  0.0000  0.0000  0.0000  0.0000 </r>
        <r>  0.0083  0.0430  0.0288  0.0702  0.0000  0.0000  0.0000  0.0000  0.0000 </r>
       </set>
       <set comment="band 14">
        <r>  0.0018  0.0100  0.0000  0.0146  0.0047  0.0000  0.0136  0.0000  0.0083 </r>
        <r>  0.0082  0.0049  0.0057  0.0012  0.0000  0.0000  0.0000  0.0000  0.0000 </r>
        <r>  0.0083  0.0050  0.0060  0.0012  0.0000  0.0000  0.0000  0.0000  0.0000 </r>
       </set>
      </set>
      <set comment="kpoint 8">
       <set comment="band 1">
        <r>  0.0208  0.0185  0.0000  0.0307  0.0314  0.0000  0.0003  0.0000  0.0158 </r>
        <r>  0.3195  0.0004  0.0059  0.0003  0.0000  0.0000  0.0000  0.0000  0.0000 </r>
        <r>  0.3195  0.0004  0.0059  0.0003  0.0000  0.0000  0.0000  0.0000  0.0000 </r>
       </set>
       <set comment="band 2">
        <r>  0.0000  0.0000  0.0071  0.0000  0.0000  0.0407  0.0000  0.0720  0.0000 </r>
        <r>  0.3310  0.0003  0.0027  0.0003  0.0000  0.0000  0.0000  0.0000  0.0000 </r>
        <r>  0.3310  0.0003  0.0027  0.0003  0.0000  0.0000  0.0000  0.0000  0.0000 </r>
       </set>
       <set comment="band 3">
        <r>  0.1026  0.0024  0.0000  0.0266  0.0644  0.0000  0.0342  0.0000  0.0433 </r>
        <r>  0.0043  0.0508  0.0087  0.1019  0.0000  0.0000  0.0000  0.0000  0.0000 </r>
        <r>  0.0043  0.0508  0.0087  0.1019  0.0000  0.0000  0.0000  0.0000  0.0000 </r>
       </set>
       <set comment="band 4">
        <r>  0.0000  0.0000  0.0350  0.0000  0.0000  0.0694  0.0000  0.1795  0.0000 </r>
        <r>  0.0071  0.0573  0.0054  0.1112  0.0000  0.0000  0.0000  0.0000  0.0000 </r>
        <r>  0.0071  0.0573  0.0054  0.1112  0.0000  0.0000  0.0000  0.0000  0.0000 </r>
       </set>
       <set comment="band 5">
        <r>  0.0162  0.0240  0.0000  0.0179  0.1402  0.0000  0.0902  0.0000  0.0527 </r>
        <r>  0.0206  0.0058  0.1294  0.0199  0.0000  0.0000  0.0000  0.0000  0.0000 </r>
        <r>  0.0206  0.0058  0.1295  0.0199  0.0000  0.0000  0.0000  0.0000  0.0000 </r>
       </set>
       <set comment="band 6">
        <r>  0.0000  0.0000  0.0256  0.0000  0.0000  0.3184  0.0000  0.0261  0.0000 </r>
        <r>  0.0020  0.1085  0.0279  0.0475  0.0000  0.0000  0.0000  0.0000  0.0000 </r>
        <r>  0.0020  0.1085  0.0279  0.0475  0.0000  0.0000  0.0000  0.0000  0.0000 </r>
       </set>
       <set comment="band 7">
        <r>  0.0233  0.0415  0.0000  0.0489  0.0014  0.0000  0.0710  0.0000  0.0229 </r>
        <r>  0.0063  0.1216  0.0320  0.0561  0.0000  0.0000  0.0000  0.0000  0.0000 </r>
        <r>  0.0063  0.1215  0.0320  0.0561  0.0000  0.0000  0.0000  0.0000  0.0000 </r>
       </set>
       <set comment="band 8">
        <r>  0.0000  0.0000  0.0363  0.0000  0.0000  0.0160  0.0000  0.1502  0.0000 </r>
        <r>  0.0118  0.0171  0.1757  0.0390  0.0000  0.0000  0.0000  0.0000  0.0000 </r>
        <r>  0.0118  0.0172  0.1757  0.0390  0.0000  0.0000  0.0000  0.0000  0.0000 </r>
       </set>
       <set comment="band 9">
        <r>  0.0034  0.0196  0.0000  0.0198  0.1840  0.0000  0.1603  0.0000  0.1971 </r>
        <r>  0.0008  0.0478  0.0257  0.0261  0.0000  0.0000  0.0000  0.0000  0.0000 </r>
        <r>  0.0008  0.0478  0.0257  0.0261  0.0000  0.0000  0.0000  0.0000  0.0000 </r>
       </set>
       <set comment="band 10">
        <r>  0.0051  0.0091  0.0000  0.0018  0.0649  0.0000  0.3342  0.0000  0.3775 </r>
        <r>  0.0002  0.0266  0.0149  0.0068  0.0000  0.0000  0.0000  0.0000  0.0000 </r>
        <r>  0.0002  0.0266  0.0149  0.0068  0.0000  0.0000  0.0000  0.0000  0.0000 </r>
       </set>
       <set comment="band 11">
        <r>  0.0154  0.0057  0.0000  0.0107  0.3789  0.0000  0.2183  0.0000  0.1807 </r>
        <r>  0.0021  0.0014  0.0171  0.0181  0.0000  0.0000  0.0000  0.0000  0.0000 </r>
        <r>  0.0021  0.0014  0.0171  0.0181  0.0000  0.0000  0.0000  0.0000  0.0000 </r>
       </set>
       <set comment="band 12">
        <r>  0.0000  0.0000  0.0063  0.0000  0.0000  0.1640  0.0000  0.3325  0.0000 </r>
        <r>  0.0091  0.0683  0.0151  0.0162  0.0000  0.0000  0.0000  0.0000  0.0000 </r>
        <r>  0.0091  0.0683  0.0151  0.0162  0.0000  0.0000  0.0000  0.0000  0.0000 </r>
       </set>
       <set comment="band 13">
        <r>  0.0000  0.0000  0.0004  0.0000  0.0000  0.3332  0.0000  0.1443  0.0000 </r>
        <r>  0.0189  0.0144  0.0665  0.0290  0.0000  0.0000  0.0000  0.0000  0.0000 </r>
        <r>  0.0189  0.0144  0.0665  0.0291  0.0000  0.0000  0.0000  0.0000  0.0000 </r>
       </set>
       <set comment="band 14">
        <r>  0.1877  0.0089  0.0000  0.0533  0.0404  0.0000  0.0061  0.0000  0.0387 </r>
        <r>  0.0001  0.0013  0.0115  0.0051  0.0000  0.0000  0.0000  0.0000  0.0000 </r>
        <r>  0.0001  0.0013  0.0115  0.0051  0.0000  0.0000  0.0000  0.0000  0.0000 </r>
       </set>
      </set>
      <set comment="kpoint 9">
       <set comment="band 1">
        <r>  0.0218  0.0321  0.0000  0.0178  0.0177  0.0000  0.0004  0.0000  0.0266 </r>
        <r>  0.3182  0.0009  0.0058  0.0003  0.0000  0.0000  0.0000  0.0000  0.0000 </r>
        <r>  0.3182  0.0009  0.0058  0.0003  0.0000  0.0000  0.0000  0.0000  0.0000 </r>
       </set>
       <set comment="band 2">
        <r>  0.0000  0.0000  0.0084  0.0000  0.0000  0.0704  0.0000  0.0375  0.0000 </r>
        <r>  0.3319  0.0005  0.0027  0.0002  0.0000  0.0000  0.0000  0.0000  0.0000 </r>
        <r>  0.3319  0.0005  0.0027  0.0002  0.0000  0.0000  0.0000  0.0000  0.0000 </r>
       </set>
       <set comment="band 3">
        <r>  0.0649  0.0098  0.0000  0.0293  0.0359  0.0000  0.0617  0.0000  0.1071 </r>
        <r>  0.0004  0.1066  0.0170  0.0360  0.0000  0.0000  0.0000  0.0000  0.0000 </r>
        <r>  0.0004  0.1066  0.0170  0.0360  0.0000  0.0000  0.0000  0.0000  0.0000 </r>
       </set>
       <set comment="band 4">
        <r>  0.0000  0.0000  0.0084  0.0000  0.0000  0.1284  0.0000  0.2209  0.0000 </r>
        <r>  0.0041  0.0958  0.0001  0.0665  0.0000  0.0000  0.0000  0.0000  0.0000 </r>
        <r>  0.0041  0.0958  0.0001  0.0665  0.0000  0.0000  0.0000  0.0000  0.0000 </r>
       </set>
       <set comment="band 5">
        <r>  0.0785  0.0205  0.0000  0.0103  0.0692  0.0000  0.0001  0.0000  0.0673 </r>
        <r>  0.0340  0.0203  0.1495  0.0150  0.0000  0.0000  0.0000  0.0000  0.0000 </r>
        <r>  0.0340  0.0203  0.1495  0.0150  0.0000  0.0000  0.0000  0.0000  0.0000 </r>
       </set>
       <set comment="band 6">
        <r>  0.0000  0.0000  0.0470  0.0000  0.0000  0.1651  0.0000  0.0582  0.0000 </r>
        <r>  0.0039  0.0671  0.0535  0.0781  0.0000  0.0000  0.0000  0.0000  0.0000 </r>
        <r>  0.0039  0.0671  0.0535  0.0781  0.0000  0.0000  0.0000  0.0000  0.0000 </r>
       </set>
       <set comment="band 7">
        <r>  0.0102  0.0636  0.0000  0.0362  0.0089  0.0000  0.1206  0.0000  0.0185 </r>
        <r>  0.0005  0.0419  0.0089  0.1233  0.0000  0.0000  0.0000  0.0000  0.0000 </r>
        <r>  0.0005  0.0419  0.0089  0.1233  0.0000  0.0000  0.0000  0.0000  0.0000 </r>
       </set>
       <set comment="band 8">
        <r>  0.0000  0.0000  0.0523  0.0000  0.0000  0.0593  0.0000  0.0753  0.0000 </r>
        <r>  0.0130  0.0383  0.1559  0.0458  0.0000  0.0000  0.0000  0.0000  0.0000 </r>
        <r>  0.0130  0.0383  0.1559  0.0458  0.0000  0.0000  0.0000  0.0000  0.0000 </r>
       </set>
       <set comment="band 9">
        <r>  0.0074  0.0001  0.0000  0.0000  0.2536  0.0000  0.1475  0.0000  0.2691 </r>
        <r>  0.0010  0.0276  0.0016  0.0448  0.0000  0.0000  0.0000  0.0000  0.0000 </r>
        <r>  0.0010  0.0276  0.0016  0.0448  0.0000  0.0000  0.0000  0.0000  0.0000 </r>
       </set>
       <set comment="band 10">
        <r>  0.0074  0.0139  0.0000  0.0052  0.0463  0.0000  0.5214  0.0000  0.1099 </r>
        <r>  0.0006  0.0275  0.0274  0.0128  0.0000  0.0000  0.0000  0.0000  0.0000 </r>
        <r>  0.0006  0.0275  0.0274  0.0128  0.0000  0.0000  0.0000  0.0000  0.0000 </r>
       </set>
       <set comment="band 11">
        <r>  0.0246  0.0117  0.0000  0.0045  0.4757  0.0000  0.0544  0.0000  0.2306 </r>
        <r>  0.0023  0.0029  0.0261  0.0081  0.0000  0.0000  0.0000  0.0000  0.0000 </r>
        <r>  0.0023  0.0029  0.0261  0.0081  0.0000  0.0000  0.0000  0.0000  0.0000 </r>
       </set>
       <set comment="band 12">
        <r>  0.0000  0.0000  0.0020  0.0000  0.0000  0.1395  0.0000  0.3941  0.0000 </r>
        <r>  0.0076  0.0256  0.0088  0.0393  0.0000  0.0000  0.0000  0.0000  0.0000 </r>
        <r>  0.0076  0.0256  0.0088  0.0393  0.0000  0.0000  0.0000  0.0000  0.0000 </r>
       </set>
       <set comment="band 13">
        <r>  0.0000  0.0000  0.0016  0.0000  0.0000  0.3946  0.0000  0.1490  0.0000 </r>
        <r>  0.0208  0.0094  0.0754  0.0247  0.0000  0.0000  0.0000  0.0000  0.0000 </r>
        <r>  0.0208  0.0094  0.0754  0.0247  0.0000  0.0000  0.0000  0.0000  0.0000 </r>
       </set>
       <set comment="band 14">
        <r>  0.1318  0.0178  0.0000  0.0487  0.0233  0.0000  0.0104  0.0000  0.0692 </r>
        <r>  0.0001  0.0023  0.0277  0.0034  0.0000  0.0000  0.0000  0.0000  0.0000 </r>
        <r>  0.0001  0.0023  0.0277  0.0034  0.0000  0.0000  0.0000  0.0000  0.0000 </r>
       </set>
      </set>
      <set comment="kpoint 10">
       <set comment="band 1">
        <r>  0.0037  0.0239  0.0000  0.0333  0.0320  0.0000  0.0001  0.0000  0.0232 </r>
        <r>  0.3268  0.0001  0.0062  0.0000  0.0000  0.0000  0.0000  0.0000  0.0000 </r>
        <r>  0.3268  0.0001  0.0062  0.0000  0.0000  0.0000  0.0000  0.0000  0.0000 </r>
       </set>
       <set comment="band 2">
        <r>  0.0000  0.0000  0.0012  0.0000  0.0000  0.0490  0.0000  0.0724  0.0000 </r>
        <r>  0.3361  0.0001  0.0031  0.0001  0.0000  0.0000  0.0000  0.0000  0.0000 </r>
        <r>  0.3361  0.0001  0.0031  0.0001  0.0000  0.0000  0.0000  0.0000  0.0000 </r>
       </set>
       <set comment="band 3">
        <r>  0.0000  0.0000  0.0052  0.0000  0.0000  0.1909  0.0000  0.1715  0.0000 </r>
        <r>  0.0014  0.0682  0.0002  0.0893  0.0000  0.0000  0.0000  0.0000  0.0000 </r>
        <r>  0.0014  0.0682  0.0002  0.0893  0.0000  0.0000  0.0000  0.0000  0.0000 </r>
       </set>
       <set comment="band 4">
        <r>  0.1158  0.0140  0.0000  0.0182  0.0234  0.0000  0.0697  0.0000  0.0120 </r>
        <r>  0.0010  0.0456  0.0008  0.1278  0.0000  0.0000  0.0000  0.0000  0.0000 </r>
        <r>  0.0010  0.0457  0.0008  0.1278  0.0000  0.0000  0.0000  0.0000  0.0000 </r>
       </set>
       <set comment="band 5">
        <r>  0.0099  0.0426  0.0000  0.0147  0.1349  0.0000  0.0570  0.0000  0.0583 </r>
        <r>  0.0128  0.0515  0.0918  0.0171  0.0000  0.0000  0.0000  0.0000  0.0000 </r>
        <r>  0.0128  0.0515  0.0918  0.0171  0.0000  0.0000  0.0000  0.0000  0.0000 </r>
       </set>
       <set comment="band 6">
        <r>  0.0254  0.0245  0.0000  0.0604  0.0232  0.0000  0.0166  0.0000  0.0499 </r>
        <r>  0.0174  0.0805  0.0844  0.0297  0.0000  0.0000  0.0000  0.0000  0.0000 </r>
        <r>  0.0174  0.0805  0.0844  0.0297  0.0000  0.0000  0.0000  0.0000  0.0000 </r>
       </set>
       <set comment="band 7">
        <r>  0.0000  0.0000  0.0880  0.0000  0.0000  0.0674  0.0000  0.0296  0.0000 </r>
        <r>  0.0021  0.1084  0.0206  0.0917  0.0000  0.0000  0.0000  0.0000  0.0000 </r>
        <r>  0.0021  0.1084  0.0205  0.0917  0.0000  0.0000  0.0000  0.0000  0.0000 </r>
       </set>
       <set comment="band 8">
        <r>  0.0000  0.0000  0.0202  0.0000  0.0000  0.0931  0.0000  0.1434  0.0000 </r>
        <r>  0.0174  0.0142  0.1844  0.0176  0.0000  0.0000  0.0000  0.0000  0.0000 </r>
        <r>  0.0174  0.0142  0.1844  0.0176  0.0000  0.0000  0.0000  0.0000  0.0000 </r>
       </set>
       <set comment="band 9">
        <r>  0.0039  0.0023  0.0000  0.0065  0.3006  0.0000  0.0598  0.0000  0.3201 </r>
        <r>  0.0000  0.0395  0.0037  0.0253  0.0000  0.0000  0.0000  0.0000  0.0000 </r>
        <r>  0.0000  0.0395  0.0037  0.0253  0.0000  0.0000  0.0000  0.0000  0.0000 </r>
       </set>
       <set comment="band 10">
        <r>  0.0367  0.0018  0.0000  0.0007  0.0402  0.0000  0.7004  0.0000  0.0491 </r>
        <r>  0.0000  0.0133  0.0025  0.0204  0.0000  0.0000  0.0000  0.0000  0.0000 </r>
        <r>  0.0000  0.0133  0.0025  0.0204  0.0000  0.0000  0.0000  0.0000  0.0000 </r>
       </set>
       <set comment="band 11">
        <r>  0.0000  0.0000  0.0013  0.0000  0.0000  0.3128  0.0000  0.1959  0.0000 </r>
        <r>  0.0008  0.0487  0.0001  0.0299  0.0000  0.0000  0.0000  0.0000  0.0000 </r>
        <r>  0.0008  0.0487  0.0001  0.0299  0.0000  0.0000  0.0000  0.0000  0.0000 </r>
       </set>
       <set comment="band 12">
        <r>  0.0025  0.0104  0.0000  0.0214  0.2945  0.0000  0.0103  0.0000  0.3825 </r>
        <r>  0.0037  0.0009  0.0672  0.0012  0.0000  0.0000  0.0000  0.0000  0.0000 </r>
        <r>  0.0037  0.0009  0.0672  0.0012  0.0000  0.0000  0.0000  0.0000  0.0000 </r>
       </set>
       <set comment="band 13">
        <r>  0.0000  0.0000  0.0003  0.0000  0.0000  0.2358  0.0000  0.3391  0.0000 </r>
        <r>  0.0266  0.0010  0.0996  0.0019  0.0000  0.0000  0.0000  0.0000  0.0000 </r>
        <r>  0.0266  0.0010  0.0996  0.0019  0.0000  0.0000  0.0000  0.0000  0.0000 </r>
       </set>
       <set comment="band 14">
        <r>  0.1173  0.0533  0.0000  0.0641  0.0537  0.0000  0.0084  0.0000  0.0326 </r>
        <r>  0.0003  0.0020  0.0027  0.0043  0.0000  0.0000  0.0000  0.0000  0.0000 </r>
        <r>  0.0003  0.0020  0.0027  0.0043  0.0000  0.0000  0.0000  0.0000  0.0000 </r>
       </set>
      </set>
     </set>
    </set>
   </array>
  </projected>
 </calculation>
 <structure name="finalpos" >
  <crystal>
   <varray name="basis" >
    <v>       3.19031573       0.00000000       0.00000000 </v>
    <v>      -1.59515786       2.76289447       0.00000000 </v>
    <v>       0.00000000       0.00000000      16.87900430 </v>
   </varray>
   <i name="volume">    148.78007932 </i>
   <varray name="rec_basis" >
    <v>       0.31344860       0.18096963       0.00000000 </v>
    <v>       0.00000000       0.36193927       0.00000000 </v>
    <v>       0.00000000       0.00000000       0.05924520 </v>
   </varray>
  </crystal>
  <varray name="positions" >
   <v>       0.33333300       0.66666700       0.22037740 </v>
   <v>       0.66666700       0.33333300       0.12766551 </v>
   <v>       0.66666600       0.33333300       0.31308929 </v>
  </varray>
 </structure>
</modeling>
