unknown system                          
   1.00000000000000     
     3.190316    0.000000    0.000000
    -1.595158    2.762894    0.000000
     0.000000    0.000000   36.879004
   Mo   S 
     1     2
Direct
  0.333333  0.666667  0.100864
  0.666667  0.333333  0.058431
  0.666666  0.333333  0.143297
 
   24   24  288
 0.50660     0.51412     0.53439     0.56949     0.62296     0.69389     0.77626     0.86286     0.94742      1.0246    
  1.0894      1.1340      1.1476      1.1241      1.0724      1.0107     0.94742     0.87523     0.78860     0.69849    
 0.62294     0.56940     0.53402     0.51305     0.51375     0.51446     0.53303     0.57022     0.62852     0.70873    
 0.80843     0.92200      1.0394      1.1478      1.2381      1.3075      1.3506      1.3537      1.3071      1.2209    
  1.1197      1.0192     0.91887     0.81560     0.71646     0.63308     0.57162     0.53228     0.53457     0.52255    
 0.53393     0.57088     0.63311     0.71836     0.82635     0.95677      1.1020      1.2455      1.3703      1.4676    
  1.5350      1.5675      1.5538      1.4852      1.3686      1.2268      1.0844     0.95267     0.83168     0.72248    
 0.63286     0.57020     0.57163     0.54279     0.53877     0.56831     0.63329     0.72436     0.83747     0.97744    
  1.1412      1.3114      1.4698      1.6035      1.6999      1.7503      1.7562      1.7198      1.6324      1.4889    
  1.3110      1.1351     0.97910     0.83966     0.71813     0.62731     0.62294     0.57794     0.55391     0.56382    
 0.62294     0.71908     0.83617     0.98146      1.1611      1.3542      1.5362      1.7020      1.8415      1.9247    
  1.9381      1.9047      1.8415      1.7294      1.5556      1.3522      1.1611     0.98922     0.83113     0.70342    
 0.68337     0.62205     0.58296     0.56571     0.60351     0.69765     0.81636     0.95723      1.1441      1.3634    
  1.5700      1.7530      1.9278      2.0687      2.1226      2.0897      2.0185      1.9217      1.7683      1.5613    
  1.3495      1.1567     0.96991     0.79979     0.75446     0.66638     0.61983     0.58182     0.58578     0.66413    
 0.78382     0.91362      1.0846      1.3171      1.5579      1.7579      1.9404      2.1240      2.2503      2.2641    
  2.1968      2.0990      1.9575      1.7511      1.5214      1.3154      1.1190     0.91745     0.84359     0.71174    
 0.65303     0.60888     0.58035     0.62546     0.74157     0.86957      1.0116      1.2229      1.4868      1.7202    
  1.9045      2.0888      2.2629      2.3490      2.3265      2.2480      2.1285      1.9340      1.6854      1.4550    
  1.2563      1.0473     0.94742     0.76771     0.67820     0.63342     0.58822     0.58978     0.68288     0.81812    
 0.94742      1.1165      1.3660      1.6321      1.8415      2.0169      2.1945      2.3255      2.3544      2.3105    
  2.2309      2.0813      1.8415      1.5825      1.3680      1.1667      1.0443     0.83691     0.70316     0.64561    
 0.60025     0.56777     0.61407     0.73919     0.87499      1.0157      1.2216      1.4870      1.7306      1.9222    
  2.0982      2.2482      2.3114      2.2880      2.2326      2.1384      1.9507      1.6927      1.4537      1.2538    
  1.1110     0.90569     0.73720     0.64970     0.60505     0.56255     0.56163     0.64519     0.77594     0.90929    
  1.0747      1.3045      1.5541      1.7686      1.9574      2.1297      2.2332      2.2334      2.1775      2.1053    
  1.9767      1.7605      1.5157      1.3056      1.1424     0.95426     0.77700     0.65759     0.59949     0.56090    
 0.53855     0.57358     0.67117     0.79346     0.93410      1.1212      1.3445      1.5573      1.7481      1.9333    
  2.0829      2.1388      2.1035      2.0310      1.9307      1.7664      1.5471      1.3318      1.1476     0.97323    
 0.80731     0.67324     0.59198     0.54887     0.52542     0.53440     0.59197     0.68636     0.80489     0.95832    
  1.1476      1.3411      1.5154      1.6820      1.8415      1.9511      1.9746      1.9279      1.8415      1.7127    
  1.5345      1.3350      1.1324     0.96718     0.81602     0.68755     0.59232     0.53258     0.50350     0.50433    
 0.53765     0.60090     0.69125     0.81419     0.97171      1.1453      1.3082      1.4519      1.5828      1.6944    
  1.7616      1.7665      1.7128      1.6115      1.4713      1.3052      1.0940     0.94467     0.80481     0.68938    
 0.59866     0.52829     0.48392     0.47352     0.49332     0.53414     0.59634     0.68755     0.80954     0.95455    
  1.1087      1.2531      1.3706      1.4572      1.5191      1.5528      1.5408      1.4742      1.3662      1.2367    
  1.0304     0.90899     0.78328     0.67782     0.60000     0.53606     0.48368     0.45819     0.46372     0.48760    
 0.52626     0.58932     0.67716     0.78089     0.90141      1.0393      1.1699      1.2603      1.3092      1.3383    
  1.3476      1.3149      1.2376      1.1385     0.94742     0.85891     0.75669     0.66097     0.59199     0.54144    
 0.49578     0.46431     0.45867     0.46958     0.48868     0.52761     0.59197     0.66446     0.73729     0.82977    
 0.94742      1.0549      1.1188      1.1476      1.1611      1.1506      1.1014      1.0271     0.85592     0.79569    
 0.72343     0.64518     0.58287     0.54106     0.50619     0.47803     0.46899     0.47514     0.48259     0.49897    
 0.54242     0.60311     0.65425     0.69865     0.76351     0.84912     0.92269     0.96540     0.98686     0.99086    
 0.96583     0.91436     0.76673     0.72713     0.68281     0.62982     0.58098     0.54686     0.52064     0.49712    
 0.48624     0.49157     0.49809     0.49980     0.51589     0.55901     0.60982     0.64555     0.67335     0.71205    
 0.75922     0.79912     0.82664     0.84182     0.83644     0.80700     0.68795     0.66377     0.64021     0.61254    
 0.58447     0.56447     0.55068     0.53581     0.52387     0.52436     0.53211     0.53270     0.52797     0.53662    
 0.56637     0.60307     0.63150     0.65116     0.66795     0.68423     0.70079     0.71619     0.72218     0.71112    
 0.62296     0.61183     0.60295     0.59511     0.58819     0.58641     0.59051     0.59382     0.59199     0.59023    
 0.59402     0.59790     0.59198     0.57715     0.56640     0.57066     0.58822     0.60799     0.61991     0.62264    
 0.62294     0.62706     0.63256     0.63183     0.57158     0.57139     0.57432     0.58183     0.59319     0.60876    
 0.62986     0.65421     0.67468     0.68574     0.68942     0.69122     0.69029     0.67808     0.64974     0.61410    
 0.58785     0.57940     0.58186     0.58292     0.57825     0.57270     0.57091     0.57161     0.53421     0.54125    
 0.55377     0.57428     0.60277     0.63639     0.67346     0.71436     0.75651     0.79116     0.80963     0.81232    
 0.80713     0.79746     0.77604     0.73464     0.67802     0.62351     0.58588     0.56572     0.55372     0.54311    
 0.53466     0.53160     0.51265     0.52217     0.54059     0.57069     0.61437     0.66825     0.72648     0.78597    
 0.84583     0.90177     0.94401     0.96282     0.95680     0.93446     0.90503     0.86773     0.81391     0.74192    
 0.66572     0.60415     0.56412     0.53910     0.52190     0.51238     0.67747     0.69053     0.72732     0.79014    
 0.88241      1.0021      1.1405      1.2866      1.4296      1.5590      1.6650      1.7363      1.7589      1.7258    
  1.6470      1.5442      1.4296      1.2998      1.1536      1.0070     0.88241     0.79007     0.72694     0.68938    
 0.69013     0.69085     0.72475     0.79217     0.89479      1.0318      1.1982      1.3845      1.5759      1.7535    
  1.9025      2.0150      2.0813      2.0846      2.0146      1.8844      1.7238      1.5546      1.3813      1.2058    
  1.0399     0.89956     0.79368     0.72401     0.72750     0.70564     0.72684     0.79287     0.90197      1.0496    
  1.2326      1.4470      1.6807      1.9112      2.1148      2.2758      2.3852      2.4328      2.4050      2.2943    
  2.1130      1.8915      1.6621      1.4426      1.2381      1.0539     0.90172     0.79215     0.79237     0.74005    
 0.73584     0.78893     0.89975      1.0558      1.2496      1.4823      1.7468      2.0205      2.2785      2.4997    
  2.6622      2.7483      2.7545      2.6832      2.5302      2.2986      2.0201      1.7403      1.4839      1.2519    
  1.0493     0.89345     0.88241     0.79773     0.75965     0.78285     0.88240      1.0426      1.2428      1.4864    
  1.7762      2.0865      2.3868      2.6643      2.8980      3.0443      3.0793      3.0233      2.8980      2.6932    
  2.4072      2.0844      1.7762      1.4946      1.2375      1.0262     0.99103     0.87266     0.80341     0.78523    
 0.85312      1.0061      1.2066      1.4474      1.7497      2.0962      2.4358      2.7508      3.0473      3.2835    
  3.3888      3.3541      3.2306      3.0409      2.7670      2.4266      2.0815      1.7630      1.4608      1.1891    
  1.1176     0.95487     0.86144     0.80612     0.82553     0.95254      1.1486      1.3758      1.6624      2.0265    
  2.4096      2.7559      3.0812      3.3900      3.6026      3.6456      3.5462      3.3636      3.0992      2.7488    
  2.3712      2.0246      1.6987      1.3798      1.2663      1.0432     0.92112     0.84310     0.81297     0.89199    
  1.0747      1.2939      1.5467      1.8874      2.2963      2.6835      3.0227      3.3528      3.6442      3.7952    
  3.7715      3.6286      3.3947      3.0538      2.6468      2.2629      1.9227      1.5843      1.4296      1.1444    
 0.97601     0.88171     0.81783     0.83561     0.98086      1.1975      1.4296      1.7205      2.1103      2.5299    
  2.8980      3.2289      3.5438      3.7704      3.8327      3.7546      3.5822      3.2968      2.8980      2.4776    
  2.1124      1.7734      1.5797      1.2574      1.0315     0.91014     0.83056     0.79631     0.87685      1.0694    
  1.2974      1.5494      1.8852      2.2964      2.6946      3.0418      3.3631      3.6289      3.7556      3.7309    
  3.6124      3.4055      3.0717      2.6545      2.2611      1.9191      1.6878      1.3638      1.0943     0.93077    
 0.83829     0.77787     0.79255     0.92607      1.1352      1.3675      1.6494      2.0119      2.4053      2.7676    
  3.0997      3.3963      3.5846      3.6131      3.5258      3.3706      3.1200      2.7590      2.3647      2.0131    
  1.7451      1.4395      1.1578     0.95387     0.83644     0.76625     0.74270     0.80921     0.96835      1.1753    
  1.4183      1.7227      2.0748      2.4220      2.7460      3.0534      3.2985      3.4056      3.3684      3.2437    
  3.0507      2.7653      2.4112      2.0615      1.7589      1.4724      1.2038     0.98151     0.83253     0.74642    
 0.70760     0.73110     0.83253     0.99545      1.2013      1.4567      1.7589      2.0713      2.3645      2.6433    
  2.8980      3.0719      3.1172      3.0474      2.8980      2.6757      2.3846      2.0648      1.7346      1.4661    
  1.2178      1.0025     0.83570     0.72450     0.66824     0.66897     0.72962     0.84470      1.0065      1.2158    
  1.4708      1.7482      2.0158      2.2592      2.4779      2.6563      2.7599      2.7651      2.6756      2.5082    
  2.2797      2.0126      1.6698      1.4294      1.2012      1.0045     0.84331     0.71744     0.63716     0.61444    
 0.64688     0.72351     0.84093      1.0025      1.2061      1.4399      1.6854      1.9184      2.1151      2.2652    
  2.3688      2.4176      2.3916      2.2830      2.1106      1.9010      1.5649      1.3672      1.1645     0.98640    
 0.84369     0.72547     0.63316     0.58652     0.59231     0.63730     0.71530     0.83252     0.98558      1.1619    
  1.3593      1.5744      1.7767      1.9268      2.0182      2.0698      2.0795      2.0241      1.9030      1.7438    
  1.4296      1.2804      1.1149     0.95758     0.83254     0.73360     0.64946     0.59293     0.57878     0.59843    
 0.64210     0.71925     0.83253     0.96109      1.0944      1.2498      1.4296      1.5922      1.6984      1.7536    
  1.7762      1.7565      1.6801      1.5631      1.2795      1.1738      1.0528     0.92610     0.81904     0.73816    
 0.67098     0.61920     0.59781     0.60418     0.62389     0.66349     0.73973     0.84026     0.93552      1.0268    
  1.1400      1.2722      1.3853      1.4561      1.4922      1.4963      1.4565      1.3766      1.1306      1.0594    
 0.98075     0.89344     0.81297     0.75153     0.70264     0.66153     0.63955     0.64137     0.65184     0.66427    
 0.69769     0.76430     0.84324     0.91006     0.97095      1.0435      1.1225      1.1884      1.2329      1.2541    
  1.2431      1.1967     0.99586     0.95217     0.90754     0.85959     0.81389     0.77988     0.75548     0.73265    
 0.71532     0.71332     0.72138     0.72447     0.72440     0.74071     0.78182     0.83346     0.87971     0.91919    
 0.95649     0.99185      1.0234      1.0473      1.0536      1.0343     0.88241     0.86189     0.84365     0.82857    
 0.81781     0.81593     0.82287     0.83039     0.83254     0.83358     0.83854     0.84157     0.83253     0.81294    
 0.79750     0.79926     0.81783     0.84221     0.86154     0.87322     0.88240     0.89327     0.90142     0.89822    
 0.79234     0.79082     0.79433     0.80617     0.82659     0.85572     0.89351     0.93547     0.97184     0.99468    
  1.0045      1.0064     0.99952     0.97554     0.93084     0.87686     0.83360     0.81203     0.80619     0.80335    
 0.79803     0.79357     0.79294     0.79363     0.72712     0.73846     0.75951     0.79425     0.84344     0.90360    
 0.97105      1.0434      1.1147      1.1728      1.2062      1.2139      1.2036      1.1794      1.1353      1.0647    
 0.97581     0.88998     0.82563     0.78522     0.75944     0.74042     0.72761     0.72322     0.68896     0.70529    
 0.73776     0.79004     0.86449     0.95682      1.0587      1.1637      1.2668      1.3597      1.4287      1.4614    
  1.4550      1.4186      1.3631      1.2899      1.1931      1.0750     0.95416     0.85377     0.78317     0.73618    
 0.70493     0.68862     0.90621     0.92891     0.99392      1.1022      1.2552      1.4480      1.6682      1.9002    
  2.1274      2.3325      2.4991      2.6094      2.6455      2.5983      2.4799      2.3168      2.1273      1.9142    
  1.6822      1.4532      1.2552      1.1022     0.99353     0.92767     0.92847     0.92923     0.98820      1.1040    
  1.2752      1.4975      1.7616      2.0535      2.3523      2.6311      2.8663      3.0420      3.1421      3.1456    
  3.0416      2.8471      2.5996      2.3299      2.0503      1.7696      1.5060      1.2802      1.1056     0.98746    
 0.99410     0.95672     0.99342      1.1047      1.2853      1.5260      1.8191      2.1563      2.5195      2.8781    
  3.1975      3.4511      3.6208      3.6900      3.6418      3.4708      3.1956      2.8573      2.4999      2.1516    
  1.8248      1.5305      1.2850      1.1040      1.1046      1.0166      1.0121      1.1009      1.2804      1.5325    
  1.8443      2.2129      2.6260      3.0528      3.4570      3.8040      4.0590      4.1940      4.2006      4.0813    
  3.8364      3.4784      3.0523      2.6190      2.2145      1.8467      1.5256      1.2738      1.2552      1.1119    
  1.0531      1.0962      1.2552      1.5088      1.8297      2.2170      2.6696      3.1540      3.6278      4.0640    
  4.4258      4.6548      4.7173      4.6325      4.4258      4.0945      3.6493      3.1517      2.6697      2.2259    
  1.8242      1.4914      1.4363      1.2354      1.1224      1.1032      1.2148      1.4523      1.7704      2.1565    
  2.6289      3.1642      3.6990      4.2011      4.6600      5.0162      5.1836      5.1467      4.9600      4.6531    
  4.2182      3.6893      3.1486      2.6431      2.1708      1.7520      1.6440      1.3746      1.2139      1.1341    
  1.1759      1.3722      1.6770      2.0445      2.5002      3.0590      3.6518      4.2064      4.7222      5.1860    
  5.4990      5.5747      5.4392      5.1581      4.7413      4.1989      3.6111      3.0572      2.5386      2.0486    
  1.8788      1.5257      1.3135      1.1874      1.1554      1.2825      1.5591      1.9082      2.3216      2.8530    
  3.4759      4.0843      4.6339      5.1466      5.5738      5.7958      5.7707      5.5573      5.1911      4.6669    
  4.0454      3.4405      2.8903      2.3612      2.1273      1.6922      1.4123      1.2478      1.1579      1.1989    
  1.4173      1.7484      2.1273      2.5962      3.1929      3.8362      4.4259      4.9582      5.4367      5.7696    
  5.8675      5.7528      5.4774      5.0302      4.4258      3.7807      3.1951      2.6522      2.3544      1.8682    
  1.5129      1.3018      1.1744      1.1381      1.2666      1.5529      1.9103      2.3222      2.8479      3.4731    
  4.0933      4.6520      5.1564      5.5572      5.7539      5.7277      5.5396      5.2012      4.6838      4.0509    
  3.4357      2.8839      2.5232      2.0292      1.6186      1.3497      1.1910      1.1060      1.1426      1.3448    
  1.6619      2.0331      2.4824      3.0386      3.6421      4.2145      4.7390      5.1915      5.4799      5.5408    
  5.4176      5.1643      4.7606      4.2054      3.5992      3.0399      2.6188      2.1450      1.7183      1.3991    
  1.2012      1.0882      1.0633      1.1724      1.4146      1.7370      2.1225      2.5949      3.1352      3.6785    
  4.1916      4.6643      5.0320      5.2025      5.1631      4.9740      4.6615      4.2121      3.6671      3.1211    
  2.6455      2.1988      1.7885      1.4481      1.2099      1.0675      1.0086      1.0511      1.2099      1.4630    
  1.7859      2.1821      2.6455      3.1315      3.5989      4.0389      4.4259      4.6861      4.7604      4.6600    
  4.4258      4.0733      3.6203      3.1245      2.6076      2.1921      1.8109      1.4813      1.2229      1.0472    
 0.95733     0.95795      1.0524      1.2324      1.4855      1.8087      2.1971      2.6221      3.0429      3.4336    
  3.7810      4.0556      4.2107      4.2161      4.0759      3.8132      3.4554      3.0394      2.5040      2.1344    
  1.7858      1.4833      1.2345      1.0422     0.92017     0.88333     0.93022      1.0485      1.2320      1.4812    
  1.7908      2.1455      2.5207      2.8831      3.1978      3.4429      3.6087      3.6797      3.6327      3.4618    
  3.1932      2.8647      2.3387      2.0327      1.7255      1.4533      1.2312      1.0505     0.91467     0.84583    
 0.85187     0.91903      1.0399      1.2195      1.4523      1.7227      2.0246      2.3489      2.6556      2.8945    
  3.0505      3.1363      3.1464      3.0566      2.8695      2.6209      2.1274      1.8924      1.6404      1.4032    
  1.2098      1.0566     0.93294     0.85253     0.83067     0.85828     0.92533      1.0417      1.2099      1.4066    
  1.6187      1.8602      2.1273      2.3696      2.5384      2.6332      2.6696      2.6361      2.5190      2.3389    
  1.8928      1.7232      1.5354      1.3449      1.1829      1.0587     0.96013     0.88836     0.85764     0.86424    
 0.89320     0.95238      1.0605      1.2052      1.3547      1.5079      1.6876      1.8850      2.0544      2.1659    
  2.2233      2.2276      2.1662      2.0453      1.6579      1.5430      1.4172      1.2842      1.1642      1.0727    
  1.0034     0.95027     0.92263     0.92323     0.93538     0.95304     0.99827      1.0862      1.1961      1.3018    
  1.4070      1.5261      1.6492      1.7511      1.8194      1.8491      1.8300      1.7600      1.4415      1.3718    
  1.2991      1.2243      1.1567      1.1081      1.0768      1.0529      1.0376      1.0379      1.0463      1.0470    
  1.0441      1.0612      1.1101      1.1774      1.2457      1.3115      1.3763      1.4371      1.4886      1.5236    
  1.5301      1.4999      1.2552      1.2240      1.1951      1.1719      1.1579      1.1588      1.1745      1.1947    
  1.2098      1.2207      1.2296      1.2291      1.2099      1.1763      1.1478      1.1411      1.1579      1.1864    
  1.2141      1.2360      1.2552      1.2736      1.2847      1.2788      1.1045      1.1046      1.1128      1.1341    
  1.1699      1.2203      1.2843      1.3547      1.4180      1.4620      1.4834      1.4855      1.4672      1.4221    
  1.3498      1.2666      1.1968      1.1545      1.1342      1.1223      1.1123      1.1059      1.1048      1.1055    
 0.99371      1.0149      1.0530      1.1127      1.1949      1.2950      1.4071      1.5255      1.6402      1.7341    
  1.7909      1.8066      1.7882      1.7412      1.6620      1.5481      1.4121      1.2805      1.1760      1.1031    
  1.0529      1.0170     0.99421     0.98656     0.92724     0.95641      1.0142      1.1038      1.2267      1.3767    
  1.5422      1.7126      1.8782      2.0249      2.1336      2.1871      2.1803      2.1229      2.0285      1.9026    
  1.7438      1.5594      1.3738      1.2154      1.0965      1.0125     0.95596     0.92683      1.2219      1.2587    
  1.3647      1.5381      1.7768      2.0721      2.4080      2.7641      3.1167      3.4383      3.7004      3.8738    
  3.9317      3.8619      3.6799      3.4215      3.1167      2.7791      2.4229      2.0776      1.7768      1.5381    
  1.3643      1.2574      1.2582      1.2590      1.3532      1.5365      1.8035      2.1455      2.5496      2.9976    
  3.4610      3.9011      4.2786      4.5611      4.7190      4.7227      4.5605      4.2581      3.8678      3.4373    
  2.9942      2.5582      2.1545      1.8088      1.5382      1.3524      1.3650      1.3064      1.3642      1.5373    
  1.8161      2.1870      2.6387      3.1598      3.7260      4.2937      4.8097      5.2253      5.5024      5.6097    
  5.5247      5.2463      4.8078      4.2717      3.7051      3.1547      2.6447      2.1917      1.8158      1.5365    
  1.5407      1.4049      1.4002      1.5367      1.8089      2.1938      2.6751      3.2483      3.8968      4.5778    
  5.2347      5.8065      6.2305      6.4564      6.4634      6.2544      5.8411      5.2574      4.5771      3.8891    
  3.2500      2.6776      2.1865      1.8019      1.7768      1.5557      1.4697      1.5389      1.7768      2.1575    
  2.6497      3.2525      3.9631      4.7382      5.5153      6.2389      6.8389      7.2246      7.3409      7.2009    
  6.8389      6.2713      5.5380      4.7357      3.9631      3.2620      2.6440      2.1390      2.0597      1.7481    
  1.5779      1.5575      1.7263      2.0768      2.5590      3.1598      3.8996      4.7488      5.6255      6.4686    
  7.2325      7.8188      8.1079      8.0686      7.7588      7.2251      6.4868      5.6153      4.7324      3.9148    
  3.1753      2.5394      2.3823      1.9669      1.7176      1.6061      1.6771      1.9644      2.4175      2.9882    
  3.7054      4.5842      5.5405      6.4742      7.3493      8.1119      8.6221      8.7644      8.5585      8.0822    
  7.3696      6.4663      5.4974      4.5823      3.7463      2.9925      2.7414      2.2053      1.8721      1.6836    
  1.6495      1.8391      2.2408      2.7728      3.4287      4.2672      5.2548      6.2604      7.2047      8.0699    
  8.7639      9.1284      9.1018      8.7466      8.1173      7.2397      6.2190      5.2172      4.3068      3.4707    
  3.1167      2.4633      2.0303      1.7736      1.6504      1.7216      2.0356      2.5230      3.1167      3.8642    
  4.8050      5.8408      6.8389      7.7569      8.5558      9.1006      9.2712      9.0828      8.5991      7.8335    
  6.8389      5.7818      4.8072      3.9236      3.4615      2.7293      2.1919      1.8609      1.6715      1.6331    
  1.8235      2.2344      2.7739      3.4272      4.2590      5.2488      6.2672      7.2217      8.0790      8.7459    
  9.0839      9.0559      8.7271      8.1266      7.2556      6.2222      5.2090      4.2972      3.7259      2.9699    
  2.3558      1.9433      1.6977      1.5816      1.6464      1.9382      2.4019      2.9740      3.6824      4.5573    
  5.5250      6.4783      7.3639      8.1163      8.6018      8.7289      8.5356      8.0874      7.3869      6.4686    
  5.4794      4.5588      3.8836      3.1452      2.5047      2.0253      1.7205      1.5523      1.5257      1.6899    
  2.0420      2.5248      3.1212      3.8582      4.7115      5.5975      6.4539      7.2347      7.8354      8.1294    
  8.0876      7.7738      7.2318      6.4756      5.5853      4.6965      3.9317      3.2304      2.6079      2.1006    
  1.7420      1.5259      1.4413      1.5084      1.7420      2.1166      2.6053      3.2126      3.9317      4.7076    
  5.4791      6.2092      6.8389      7.2603      7.3899      7.2325      6.8389      6.2459      5.5018      4.7002    
  3.8717      3.2234      2.6419      2.1487      1.7651      1.5038      1.3700      1.3704      1.5091      1.7752    
  2.1532      2.6395      3.2285      3.8873      4.5620      5.2067      5.7821      6.2300      6.4789      6.4844    
  6.2514      5.8163      5.2300      4.5582      3.7054      3.1339      2.6052      2.1509      1.7807      1.4989    
  1.3214      1.2659      1.3318      1.5054      1.7782      2.1485      2.6103      3.1456      3.7234      4.2964    
  4.8100      5.2197      5.4949      5.6050      5.5202      5.2398      4.8053      4.2768      3.4446      2.9735    
  2.5125      2.1063      1.7738      1.5075      1.3126      1.2135      1.2198      1.3171      1.4965      1.7616    
  2.1050      2.5093      2.9651      3.4556      3.9272      4.3112      4.5753      4.7193      4.7299      4.5816    
  4.2848      3.8905      3.1167      2.7548      2.3791      2.0299      1.7420      1.5135      1.3347      1.2205    
  1.1875      1.2265      1.3268      1.4981      1.7420      2.0333      2.3560      2.7209      3.1167      3.4794    
  3.7460      3.9045      3.9631      3.9072      3.7254      3.4471      2.7565      2.4963      2.2158      1.9384    
  1.7012      1.5165      1.3728      1.2711      1.2258      1.2327      1.2762      1.3648      1.5186      1.7246    
  1.9485      2.1867      2.4586      2.7481      2.9985      3.1700      3.2595      3.2638      3.1701      2.9890    
  2.3973      2.2237      2.0355      1.8421      1.6694      1.5358      1.4359      1.3625      1.3239      1.3215    
  1.3371      1.3653      1.4305      1.5501      1.7031      1.8609      2.0248      2.2057      2.3877      2.5385    
  2.6390      2.6802      2.6501      2.5479      2.0653      1.9641      1.8567      1.7486      1.6527      1.5837    
  1.5401      1.5105      1.4937      1.4944      1.5031      1.5034      1.5011      1.5237      1.5858      1.6747    
  1.7714      1.8699      1.9686      2.0605      2.1360      2.1844      2.1912      2.1480      1.7768      1.7361    
  1.6975      1.6671      1.6505      1.6550      1.6801      1.7134      1.7420      1.7629      1.7757      1.7717    
  1.7420      1.6941      1.6518      1.6361      1.6504      1.6826      1.7177      1.7488      1.7768      1.8018    
  1.8155      1.8072      1.5406      1.5479      1.5678      1.6061      1.6650      1.7445      1.8423      1.9486    
  2.0454      2.1153      2.1510      2.1532      2.1210      2.0499      1.9434      1.8234      1.7194      1.6486    
  1.6063      1.5779      1.5560      1.5420      1.5374      1.5381      1.3645      1.4032      1.4696      1.5676    
  1.6973      1.8525      2.0249      2.2055      2.3788      2.5214      2.6104      2.6372      2.6077      2.5291    
  2.4020      2.2293      2.0301      1.8371      1.6772      1.5574      1.4694      1.4053      1.3651      1.3514    
  1.2569      1.3061      1.4024      1.5469      1.7389      1.9691      2.2229      2.4851      2.7400      2.9654    
  3.1330      3.2178      3.2107      3.1216      2.9691      2.7659      2.5183      2.2412      1.9661      1.7268    
  1.5393      1.4006      1.3056      1.2565      1.6576      1.7128      1.8724      2.1316      2.4857      2.9245    
  3.4298      3.9764      4.5296      5.0442      5.4688      5.7511      5.8472      5.7383      5.4468      5.0262    
  4.5296      3.9925      3.4458      2.9304      2.4858      2.1316      1.8719      1.7113      1.7123      1.7132    
  1.8520      2.1227      2.5180      3.0283      3.6406      4.3333      5.0676      5.7837      6.4124      6.8879    
  7.1512      7.1551      6.8872      6.3905      5.7483      5.0426      4.3299      3.6497      3.0379      2.5236    
  2.1245      1.8511      1.8726      1.7877      1.8718      2.1235      2.5327      3.0863      3.7755      4.5890    
  5.4945      6.4270      7.2981      8.0150      8.4953      8.6752      8.5191      8.0374      7.2962      6.4036    
  5.4721      4.5835      3.7819      3.0913      2.5323      2.1226      2.1343      1.9386      1.9335      2.1300    
  2.5236      3.0935      3.8282      4.7282      5.7733      6.9027      8.0228      9.0206      9.7739      10.180    
  10.187      9.7994      9.0576      8.0470      6.9017      5.7650      4.7299      3.8310      3.0857      2.5162    
  2.4858      2.1639      2.0440      2.1460      2.4857      3.0410      3.7871      4.7325      5.8779      7.1676    
  8.5051      9.7804      10.853      11.558      11.786      11.533      10.853      9.8150      8.5292      7.1647    
  5.8779      4.7427      3.7812      3.0213      2.9113      2.4500      2.2068      2.1850      2.4268      2.9296    
  3.6506      4.5889      5.7760      7.1786      8.6871      10.189      11.564      12.627      13.176      13.134    
  12.563      11.557      10.208      8.6762      7.1612      5.7924      4.6054      3.6297      3.4025      2.7792    