unknown system                          
   1.00000000000000     
     3.190316    0.000000    0.000000
    -1.595158    2.762894    0.000000
     0.000000    0.000000   36.879004
   Mo   S 
     1     2
Direct
  0.333333  0.666667  0.100864
  0.666667  0.333333  0.058431
  0.666666  0.333333  0.143297
 
   24   24  288
 0.50660492480E+00 0.51412121913E+00 0.53438898608E+00 0.56949450709E+00 0.62295859668E+00
 0.69388836234E+00 0.77626205056E+00 0.86285930134E+00 0.94742463130E+00 0.10246270539E+01
 0.10893613531E+01 0.11340181723E+01 0.11476149475E+01 0.11240658587E+01 0.10723501382E+01
 0.10106907382E+01 0.94742071351E+00 0.87523413133E+00 0.78859684705E+00 0.69848762072E+00
 0.62293916555E+00 0.56940431327E+00 0.53402071926E+00 0.51305179530E+00 0.51374786290E+00
 0.51445948797E+00 0.53302607660E+00 0.57021916849E+00 0.62851849392E+00 0.70873223972E+00
 0.80842820511E+00 0.92199579513E+00 0.10394331107E+01 0.11478067897E+01 0.12380803943E+01
 0.13074843369E+01 0.13506246116E+01 0.13537298475E+01 0.13070585391E+01 0.12209413958E+01
 0.11197096901E+01 0.10192456550E+01 0.91887231220E+00 0.81560331700E+00 0.71645796082E+00
 0.63308011720E+00 0.57162343695E+00 0.53228254402E+00 0.53457397546E+00 0.52255479795E+00
 0.53392797895E+00 0.57087728006E+00 0.63310846287E+00 0.71836351202E+00 0.82635119950E+00
 0.95676539360E+00 0.11019901474E+01 0.12455092056E+01 0.13703225072E+01 0.14676091049E+01
 0.15350254260E+01 0.15675309150E+01 0.15537953226E+01 0.14851976867E+01 0.13685572334E+01
 0.12268057257E+01 0.10843593185E+01 0.95266946966E+00 0.83168256934E+00 0.72247663117E+00
 0.63286194323E+00 0.57019636212E+00 0.57162703800E+00 0.54278670362E+00 0.53876713758E+00
 0.56831435076E+00 0.63328587664E+00 0.72435797888E+00 0.83746957436E+00 0.97744341859E+00
 0.11411622174E+01 0.13114082272E+01 0.14698132886E+01 0.16034651149E+01 0.16999272163E+01
 0.17503079795E+01 0.17561688549E+01 0.17198160364E+01 0.16323924501E+01 0.14889055311E+01
 0.13110061701E+01 0.11350726875E+01 0.97909916437E+00 0.83966455454E+00 0.71813076313E+00
 0.62730716853E+00 0.62293915112E+00 0.57793584435E+00 0.55390663974E+00 0.56381667094E+00
 0.62294367390E+00 0.71908380620E+00 0.83617365943E+00 0.98146159862E+00 0.11611150822E+01
 0.13541526621E+01 0.15361637265E+01 0.17019909763E+01 0.18415022912E+01 0.19247109973E+01
 0.19380952964E+01 0.19047286505E+01 0.18414990100E+01 0.17293677842E+01 0.15555500356E+01
 0.13522421134E+01 0.11611115434E+01 0.98922317001E+00 0.83112932684E+00 0.70341516240E+00
 0.68336780773E+00 0.62205106073E+00 0.58295820135E+00 0.56571301542E+00 0.60350956789E+00
 0.69765252056E+00 0.81636178965E+00 0.95722530026E+00 0.11441032331E+01 0.13634171748E+01
 0.15700045569E+01 0.17529576755E+01 0.19277638153E+01 0.20686817528E+01 0.21225915541E+01
 0.20896595914E+01 0.20185320326E+01 0.19217389813E+01 0.17683139743E+01 0.15613419639E+01
 0.13494690330E+01 0.11566614932E+01 0.96991242676E+00 0.79978746282E+00 0.75446307347E+00
 0.66637808154E+00 0.61983150133E+00 0.58182197551E+00 0.58577941961E+00 0.66412871642E+00
 0.78382371986E+00 0.91362176888E+00 0.10846316666E+01 0.13171194824E+01 0.15578814425E+01
 0.17578603215E+01 0.19404329419E+01 0.21239847976E+01 0.22502508788E+01 0.22640578554E+01
 0.21967905478E+01 0.20989888560E+01 0.19574823836E+01 0.17510710434E+01 0.15214162532E+01
 0.13153520225E+01 0.11190463533E+01 0.91744526079E+00 0.84359017116E+00 0.71174460725E+00
 0.65303094533E+00 0.60887970410E+00 0.58035105917E+00 0.62546385158E+00 0.74157304853E+00
 0.86957036131E+00 0.10116289704E+01 0.12228950222E+01 0.14867557573E+01 0.17202458014E+01
 0.19045388375E+01 0.20888187793E+01 0.22629291559E+01 0.23490292533E+01 0.23264705411E+01
 0.22480393054E+01 0.21285096996E+01 0.19340169026E+01 0.16853771022E+01 0.14550388241E+01
 0.12563265524E+01 0.10473394281E+01 0.94742072112E+00 0.76771204913E+00 0.67820360057E+00
 0.63342490416E+00 0.58821976244E+00 0.58978057409E+00 0.68288205736E+00 0.81811501818E+00
 0.94742415626E+00 0.11164848167E+01 0.13659617025E+01 0.16320746907E+01 0.18415048001E+01
 0.20169320738E+01 0.21945365242E+01 0.23254962270E+01 0.23543894088E+01 0.23104536379E+01
 0.22309243240E+01 0.20813127237E+01 0.18414990432E+01 0.15825088736E+01 0.13680039855E+01
 0.11666744971E+01 0.10442889131E+01 0.83690814588E+00 0.70316468991E+00 0.64561339578E+00
 0.60024930975E+00 0.56777325780E+00 0.61407341641E+00 0.73919066394E+00 0.87499318932E+00
 0.10157266516E+01 0.12216296875E+01 0.14870369075E+01 0.17305852138E+01 0.19222454227E+01
 0.20982385006E+01 0.22481997069E+01 0.23114335303E+01 0.22880333792E+01 0.22325828184E+01
 0.21383775720E+01 0.19506735696E+01 0.16926868970E+01 0.14537226807E+01 0.12538435189E+01
 0.11110018631E+01 0.90568631442E+00 0.73720327248E+00 0.64970098287E+00 0.60504895910E+00
 0.56254571298E+00 0.56163495863E+00 0.64518692601E+00 0.77593919771E+00 0.90929050909E+00
 0.10746714364E+01 0.13045036320E+01 0.15540848242E+01 0.17685794099E+01 0.19574281580E+01
 0.21297135506E+01 0.22331882500E+01 0.22334083279E+01 0.21774654061E+01 0.21053486393E+01
 0.19767470227E+01 0.17605147320E+01 0.15156968915E+01 0.13056315028E+01 0.11423975453E+01
 0.95426026318E+00 0.77700059088E+00 0.65759067707E+00 0.59948566078E+00 0.56089834401E+00
 0.53855477643E+00 0.57358364404E+00 0.67117427245E+00 0.79345795979E+00 0.93409915348E+00
 0.11211633283E+01 0.13444859696E+01 0.15572860103E+01 0.17481246222E+01 0.19332656935E+01
 0.20829246277E+01 0.21387944188E+01 0.21035300285E+01 0.20309840745E+01 0.19306959702E+01
 0.17664169168E+01 0.15470761330E+01 0.13318480202E+01 0.11476149893E+01 0.97323213637E+00
 0.80731033358E+00 0.67324416810E+00 0.59197526775E+00 0.54887057588E+00 0.52542240131E+00
 0.53440170006E+00 0.59196545795E+00 0.68636112607E+00 0.80489077373E+00 0.95832163795E+00
 0.11476138649E+01 0.13411159667E+01 0.15154330986E+01 0.16820253988E+01 0.18415048406E+01
 0.19511444899E+01 0.19745667248E+01 0.19279219989E+01 0.18415023647E+01 0.17126661931E+01
 0.15344721824E+01 0.13349669078E+01 0.11324408298E+01 0.96717837946E+00 0.81602493359E+00
 0.68755426391E+00 0.59231831231E+00 0.53257684750E+00 0.50350494524E+00 0.50433272916E+00
 0.53764952022E+00 0.60090358290E+00 0.69124901492E+00 0.81419107796E+00 0.97170593923E+00
 0.11453186426E+01 0.13082041307E+01 0.14518613575E+01 0.15828364827E+01 0.16944255193E+01
 0.17615608418E+01 0.17665001109E+01 0.17127603818E+01 0.16115115601E+01 0.14713096484E+01
 0.13052109094E+01 0.10940072325E+01 0.94466762533E+00 0.80480544596E+00 0.68937854734E+00
 0.59866202804E+00 0.52829254150E+00 0.48391532262E+00 0.47352077131E+00 0.49332290411E+00
 0.53414109254E+00 0.59634105551E+00 0.68754850064E+00 0.80953665591E+00 0.95455398112E+00
 0.11086773034E+01 0.12531047202E+01 0.13706075847E+01 0.14572349729E+01 0.15191018432E+01
 0.15527616290E+01 0.15408096070E+01 0.14741592016E+01 0.13662299409E+01 0.12366533403E+01
 0.10303877720E+01 0.90899364692E+00 0.78327599763E+00 0.67782244461E+00 0.59999782152E+00
 0.53606377803E+00 0.48368251080E+00 0.45819078492E+00 0.46372078191E+00 0.48759609018E+00
 0.52625724441E+00 0.58931921100E+00 0.67716016287E+00 0.78088703018E+00 0.90140669807E+00
 0.10393178594E+01 0.11699063987E+01 0.12602997283E+01 0.13092356892E+01 0.13382904336E+01
 0.13475666605E+01 0.13149462258E+01 0.12376253946E+01 0.11384958994E+01 0.94742464906E+00
 0.85891301954E+00 0.75669254599E+00 0.66097445147E+00 0.59199456197E+00 0.54143790961E+00
 0.49577770721E+00 0.46431102327E+00 0.45867250779E+00 0.46958015113E+00 0.48867704634E+00
 0.52760681756E+00 0.59196543773E+00 0.66446267356E+00 0.73728749208E+00 0.82977496550E+00
 0.94742416644E+00 0.10548930162E+01 0.11187654601E+01 0.11476030008E+01 0.11611151201E+01
 0.11505595837E+01 0.11014369139E+01 0.10271169965E+01 0.85591533063E+00 0.79569360771E+00
 0.72342991661E+00 0.64517650672E+00 0.58287329542E+00 0.54105829089E+00 0.50618544947E+00
 0.47802806474E+00 0.46898710429E+00 0.47514175544E+00 0.48258790506E+00 0.49896612809E+00
 0.54241937830E+00 0.60310555401E+00 0.65425403963E+00 0.69864850598E+00 0.76351017710E+00
 0.84911666175E+00 0.92268888981E+00 0.96540111485E+00 0.98686436153E+00 0.99085644160E+00
 0.96583253905E+00 0.91435575515E+00 0.76672847815E+00 0.72713148082E+00 0.68281038145E+00
 0.62982401719E+00 0.58097580304E+00 0.54686268571E+00 0.52064021273E+00 0.49711831888E+00
 0.48624412041E+00 0.49156634781E+00 0.49809475903E+00 0.49980443329E+00 0.51588883714E+00
 0.55900959029E+00 0.60982025866E+00 0.64554844694E+00 0.67334848618E+00 0.71205223975E+00
 0.75922353977E+00 0.79911884497E+00 0.82664007459E+00 0.84181545614E+00 0.83643805265E+00
 0.80700114201E+00 0.68794540684E+00 0.66377271210E+00 0.64021155757E+00 0.61254040632E+00
 0.58447232222E+00 0.56447123586E+00 0.55068250352E+00 0.53581097582E+00 0.52387487262E+00
 0.52436010933E+00 0.53211234737E+00 0.53269613002E+00 0.52796594384E+00 0.53662374448E+00
 0.56636555454E+00 0.60306811820E+00 0.63149848400E+00 0.65116488164E+00 0.66794856610E+00
 0.68422941975E+00 0.70079412097E+00 0.71619229351E+00 0.72218334191E+00 0.71112499445E+00
 0.62295859795E+00 0.61182750661E+00 0.60294920816E+00 0.59511167994E+00 0.58818740011E+00
 0.58640887144E+00 0.59050938662E+00 0.59382368647E+00 0.59199454920E+00 0.59023070182E+00
 0.59401616540E+00 0.59790208069E+00 0.59197523479E+00 0.57714757363E+00 0.56639724917E+00
 0.57065755710E+00 0.58821975915E+00 0.60798861413E+00 0.61991320355E+00 0.62263579894E+00
 0.62294368959E+00 0.62705674496E+00 0.63255521643E+00 0.63182884436E+00 0.57158025542E+00
 0.57138800592E+00 0.57431881843E+00 0.58183221411E+00 0.59319101082E+00 0.60875797441E+00
 0.62986141028E+00 0.65420623800E+00 0.67468025364E+00 0.68574366632E+00 0.68941594141E+00
 0.69121739294E+00 0.69029156811E+00 0.67808284013E+00 0.64973835878E+00 0.61410096915E+00
 0.58784978513E+00 0.57939625684E+00 0.58185935634E+00 0.58291855709E+00 0.57824915038E+00
 0.57269762074E+00 0.57091468196E+00 0.57160885504E+00 0.53420551029E+00 0.54124905513E+00
 0.55377187469E+00 0.57428142504E+00 0.60276572323E+00 0.63639172602E+00 0.67346026863E+00
 0.71436278530E+00 0.75650905683E+00 0.79115981900E+00 0.80963476723E+00 0.81232441939E+00
 0.80712686736E+00 0.79745539110E+00 0.77603845980E+00 0.73463971990E+00 0.67802012799E+00
 0.62351012275E+00 0.58588120769E+00 0.56571525439E+00 0.55372315085E+00 0.54311300252E+00
 0.53466471606E+00 0.53159901011E+00 0.51265423352E+00 0.52217250957E+00 0.54059290350E+00
 0.57069446242E+00 0.61436692827E+00 0.66824867497E+00 0.72647531466E+00 0.78597031601E+00
 0.84582595175E+00 0.90176593867E+00 0.94401144422E+00 0.96282168269E+00 0.95680347248E+00
 0.93446162511E+00 0.90503017130E+00 0.86772702936E+00 0.81390592893E+00 0.74192159997E+00
 0.66572194750E+00 0.60415198363E+00 0.56412212901E+00 0.53909698020E+00 0.52189864308E+00
 0.51237626563E+00 0.67746887102E+00 0.69052674000E+00 0.72732223622E+00 0.79013706596E+00
 0.88241016164E+00 0.10020715310E+01 0.11404953424E+01 0.12866446372E+01 0.14295930153E+01
 0.15589884894E+01 0.16650388506E+01 0.17362707954E+01 0.17589246877E+01 0.17257887487E+01
 0.16470494895E+01 0.15441908767E+01 0.14295505008E+01 0.12997588635E+01 0.11535850627E+01
 0.10069570479E+01 0.88240653234E+00 0.79006573106E+00 0.72693944016E+00 0.68938366368E+00
 0.69012508512E+00 0.69085458189E+00 0.72474690973E+00 0.79217074551E+00 0.89479325001E+00
 0.10318350039E+01 0.11982161613E+01 0.13845426890E+01 0.15758797517E+01 0.17534989847E+01
 0.19025171796E+01 0.20150174038E+01 0.20813363649E+01 0.20846489633E+01 0.20146098056E+01
 0.18844099460E+01 0.17238325026E+01 0.15546482933E+01 0.13813432346E+01 0.12057905762E+01
 0.10399081414E+01 0.89955676570E+00 0.79367754536E+00 0.72401197849E+00 0.72749774757E+00
 0.70563736344E+00 0.72684364949E+00 0.79286866765E+00 0.90197490633E+00 0.10496150534E+01
 0.12325981713E+01 0.14470308102E+01 0.16806690617E+01 0.19111636462E+01 0.21147926935E+01
 0.22757505577E+01 0.23851607139E+01 0.24328341655E+01 0.24049708193E+01 0.22943258156E+01
 0.21129863091E+01 0.18915207844E+01 0.16621122187E+01 0.14426419654E+01 0.12381033936E+01
 0.10538959609E+01 0.90172472809E+00 0.79214962217E+00 0.79237056803E+00 0.74004770506E+00
 0.73584370379E+00 0.78892571090E+00 0.89974703473E+00 0.10558452416E+01 0.12495710122E+01
 0.14822777682E+01 0.17467613209E+01 0.20204791544E+01 0.22784617215E+01 0.24996707042E+01
 0.26621750515E+01 0.27482715609E+01 0.27544552058E+01 0.26831637044E+01 0.25302106232E+01
 0.22986343452E+01 0.20200530214E+01 0.17402735397E+01 0.14839465560E+01 0.12518735088E+01
 0.10493217784E+01 0.89345465422E+00 0.88240651791E+00 0.79772684460E+00 0.75964718220E+00
 0.78284547317E+00 0.88240089478E+00 0.10426456939E+01 0.12427779994E+01 0.14863756501E+01
 0.17762147425E+01 0.20865194073E+01 0.23868056984E+01 0.26643287891E+01 0.28980122857E+01
 0.30443402287E+01 0.30792640449E+01 0.30232832274E+01 0.28980082691E+01 0.26931548756E+01
 0.24071743089E+01 0.20844492001E+01 0.17762207846E+01 0.14946326657E+01 0.12375450999E+01
 0.10261757728E+01 0.99103469223E+00 0.87266245670E+00 0.80340782632E+00 0.78522844341E+00
 0.85312391899E+00 0.10060969035E+01 0.12065565670E+01 0.14473689602E+01 0.17497312600E+01
 0.20962204347E+01 0.24357665178E+01 0.27508283170E+01 0.30472603747E+01 0.32834865519E+01
 0.33888225898E+01 0.33540737862E+01 0.32305607571E+01 0.30408730080E+01 0.27669908204E+01
 0.24266016932E+01 0.20815177933E+01 0.17630394047E+01 0.14608336674E+01 0.11891268255E+01
 0.11175722390E+01 0.95486805212E+00 0.86143883898E+00 0.80612320841E+00 0.82552863990E+00
 0.95254276790E+00 0.11486256993E+01 0.13758491705E+01 0.16623904789E+01 0.20264508195E+01
 0.24095708013E+01 0.27559169939E+01 0.30812163826E+01 0.33899641850E+01 0.36025679085E+01
 0.36455885199E+01 0.35461598228E+01 0.33635893716E+01 0.30992191141E+01 0.27487991447E+01
 0.23711614764E+01 0.20246271883E+01 0.16986833548E+01 0.13798153348E+01 0.12663454864E+01
 0.10431597493E+01 0.92112144169E+00 0.84310437834E+00 0.81296885648E+00 0.89199120877E+00
 0.10746796105E+01 0.12939001617E+01 0.15467128243E+01 0.18874065481E+01 0.22963142306E+01
 0.26834882252E+01 0.30227154887E+01 0.33528425046E+01 0.36442356411E+01 0.37952322858E+01
 0.37714576093E+01 0.36285690026E+01 0.33947334299E+01 0.30538253990E+01 0.26467505603E+01
 0.22629161090E+01 0.19226648258E+01 0.15842644327E+01 0.14295505084E+01 0.11443786708E+01
 0.97600839514E+00 0.88171446080E+00 0.81783027495E+00 0.83560928763E+00 0.98085995506E+00
 0.11974976483E+01 0.14295557458E+01 0.17204936046E+01 0.21103195217E+01 0.25299127322E+01
 0.28980192300E+01 0.32288681434E+01 0.35437793204E+01 0.37704282415E+01 0.38327218805E+01
 0.37545624014E+01 0.35821726491E+01 0.32967917126E+01 0.28980083023E+01 0.24775972129E+01
 0.21124280100E+01 0.17733996773E+01 0.15796653478E+01 0.12573573667E+01 0.10315188635E+01
 0.91013789772E+00 0.83056228567E+00 0.79631356768E+00 0.87685221326E+00 0.10694207184E+01
 0.12973750245E+01 0.15494358739E+01 0.18851869501E+01 0.22963547378E+01 0.26945637644E+01
 0.30417559683E+01 0.33631317628E+01 0.36288974586E+01 0.37555941195E+01 0.37308831030E+01
 0.36123833888E+01 0.34054706058E+01 0.30717486591E+01 0.26545327854E+01 0.22611207155E+01
 0.19191430116E+01 0.16878349332E+01 0.13637804280E+01 0.10942817017E+01 0.93076501857E+00
 0.83828890872E+00 0.77787212172E+00 0.79255118044E+00 0.92607443916E+00 0.11351607882E+01
 0.13675242204E+01 0.16494341165E+01 0.20118675101E+01 0.24052630432E+01 0.27675570589E+01
 0.30996692358E+01 0.33963369068E+01 0.35845647650E+01 0.36130915985E+01 0.35257696669E+01
 0.33706309300E+01 0.31200494901E+01 0.27590293974E+01 0.23647437206E+01 0.20130819209E+01
 0.17451182613E+01 0.14395206065E+01 0.11578409278E+01 0.95386670532E+00 0.83643940093E+00
 0.76624777899E+00 0.74270133904E+00 0.80920969996E+00 0.96835334067E+00 0.11753227490E+01
 0.14182612207E+01 0.17226643985E+01 0.20748181872E+01 0.24219825177E+01 0.27459582430E+01
 0.30533623050E+01 0.32985062450E+01 0.34055853869E+01 0.33683653877E+01 0.32436961006E+01
 0.30506788112E+01 0.27652962120E+01 0.24112353553E+01 0.20615222594E+01 0.17589247295E+01
 0.14724032252E+01 0.12037720816E+01 0.98151451746E+00 0.83253116608E+00 0.74642328664E+00
 0.70759556989E+00 0.73109541466E+00 0.83252626432E+00 0.99544515312E+00 0.12012791153E+01
 0.14566666142E+01 0.17589333153E+01 0.20712987674E+01 0.23644775989E+01 0.26432792441E+01
 0.28980192705E+01 0.30719389671E+01 0.31172292156E+01 0.30473726919E+01 0.28980123593E+01
 0.26756803252E+01 0.23846024190E+01 0.20647848982E+01 0.17345734126E+01 0.14660545311E+01
 0.12178177317E+01 0.10025458867E+01 0.83570274116E+00 0.72449539716E+00 0.66824143921E+00
 0.66897263982E+00 0.72961716552E+00 0.84469966833E+00 0.10064807489E+01 0.12158415359E+01
 0.14707792843E+01 0.17482299834E+01 0.20158342513E+01 0.22591828513E+01 0.24779067624E+01
 0.26563109709E+01 0.27598837567E+01 0.27650532550E+01 0.26756223707E+01 0.25082117063E+01
 0.22797173436E+01 0.20125785823E+01 0.16698175816E+01 0.14294352413E+01 0.12012043292E+01
 0.10044707495E+01 0.84331497760E+00 0.71743903575E+00 0.63715553842E+00 0.61443788601E+00
 0.64687848519E+00 0.72351158786E+00 0.84092702384E+00 0.10025139922E+01 0.12060578491E+01
 0.14398600765E+01 0.16854408507E+01 0.19183920769E+01 0.21150982555E+01 0.22651702316E+01
 0.23687793003E+01 0.24175748449E+01 0.23915844305E+01 0.22830359490E+01 0.21105723269E+01
 0.19009892774E+01 0.15649301604E+01 0.13671952737E+01 0.11645470908E+01 0.98640081907E+00
 0.84368894849E+00 0.72547331424E+00 0.63316134139E+00 0.58652041792E+00 0.59230709025E+00
 0.63729956575E+00 0.71530058468E+00 0.83252189894E+00 0.98557673366E+00 0.11619349463E+01
 0.13593132543E+01 0.15744300207E+01 0.17767438610E+01 0.19267616239E+01 0.20182398713E+01
 0.20698177934E+01 0.20794701422E+01 0.20241159936E+01 0.19029526802E+01 0.17437600911E+01
 0.14295930331E+01 0.12804335827E+01 0.11148555892E+01 0.95757817982E+00 0.83253818140E+00
 0.73359546930E+00 0.64945522423E+00 0.59292607793E+00 0.57878440803E+00 0.59842855400E+00
 0.64209977585E+00 0.71925145574E+00 0.83252624409E+00 0.96108696318E+00 0.10943753638E+01
 0.12498374570E+01 0.14295557560E+01 0.15921893343E+01 0.16984033225E+01 0.17535905230E+01
 0.17762147805E+01 0.17565196223E+01 0.16801107770E+01 0.15630752363E+01 0.12794664214E+01
 0.11738302472E+01 0.10528137983E+01 0.92609537447E+00 0.81903852936E+00 0.73815917043E+00
 0.67098053884E+00 0.61920024807E+00 0.59781096123E+00 0.60417899078E+00 0.62388546706E+00
 0.66349183389E+00 0.73972725690E+00 0.84025608541E+00 0.93552200008E+00 0.10267680191E+01
 0.11400108405E+01 0.12722036948E+01 0.13852967387E+01 0.14561130724E+01 0.14921883843E+01
 0.14962995529E+01 0.14564784030E+01 0.13766230501E+01 0.11305890676E+01 0.10594289730E+01
 0.98075460693E+00 0.89344122647E+00 0.81296590488E+00 0.75153320800E+00 0.70263623693E+00
 0.66153296095E+00 0.63954893507E+00 0.64137233343E+00 0.65184052877E+00 0.66427468481E+00
 0.69768930336E+00 0.76430018108E+00 0.84324290163E+00 0.91005733785E+00 0.97095368152E+00
 0.10435355871E+01 0.11225191714E+01 0.11883648774E+01 0.12328717122E+01 0.12541452085E+01
 0.12430627780E+01 0.11966882498E+01 0.99585882908E+00 0.95217391087E+00 0.90754345010E+00
 0.85958848938E+00 0.81389020124E+00 0.77988427233E+00 0.75547657004E+00 0.73265495230E+00
 0.71531963851E+00 0.71331894627E+00 0.72138238585E+00 0.72447198147E+00 0.72440049907E+00
 0.74070560705E+00 0.78181550751E+00 0.83346206638E+00 0.87970517272E+00 0.91919190927E+00
 0.95648616181E+00 0.99184860204E+00 0.10234420459E+01 0.10473276976E+01 0.10535584275E+01
 0.10342504545E+01 0.88241016291E+00 0.86188671000E+00 0.84364708173E+00 0.82856606251E+00
 0.81781239826E+00 0.81593133250E+00 0.82287219082E+00 0.83038832990E+00 0.83253816863E+00
 0.83357571156E+00 0.83853626338E+00 0.84157171418E+00 0.83253113312E+00 0.81293832340E+00
 0.79750347999E+00 0.79925940115E+00 0.81783027167E+00 0.84221066393E+00 0.86154147398E+00
 0.87321785712E+00 0.88240091047E+00 0.89327062640E+00 0.90141660869E+00 0.89822341100E+00
 0.79233520543E+00 0.79081706970E+00 0.79432595044E+00 0.80617247149E+00 0.82659262012E+00
 0.85571632430E+00 0.89351243063E+00 0.93547174199E+00 0.97183942050E+00 0.99468300689E+00
 0.10045419546E+01 0.10064414471E+01 0.99952271771E+00 0.97553670763E+00 0.93083620554E+00
 0.87686156596E+00 0.83360401128E+00 0.81203152746E+00 0.80619440031E+00 0.80334891891E+00
 0.79803456009E+00 0.79357110641E+00 0.79293988061E+00 0.79362746936E+00 0.72711889134E+00
 0.73846077707E+00 0.75950936593E+00 0.79425474598E+00 0.84344372772E+00 0.90360007431E+00
 0.97105166083E+00 0.10433662197E+01 0.11146522309E+01 0.11727580672E+01 0.12061863711E+01
 0.12138509750E+01 0.12035687463E+01 0.11794397562E+01 0.11352704769E+01 0.10647239876E+01
 0.97580505347E+00 0.88997740442E+00 0.82562936430E+00 0.78521613447E+00 0.75944382422E+00
 0.74041788318E+00 0.72760530688E+00 0.72321899488E+00 0.68896081342E+00 0.70529310950E+00
 0.73775736421E+00 0.79004245389E+00 0.86449235509E+00 0.95682067920E+00 0.10587255456E+01
 0.11636792470E+01 0.12668045266E+01 0.13596876717E+01 0.14287317990E+01 0.14613843307E+01
 0.14550272113E+01 0.14186252015E+01 0.13630770236E+01 0.12898590830E+01 0.11931213313E+01
 0.10750072179E+01 0.95416465684E+00 0.85376737346E+00 0.78316997196E+00 0.73617692843E+00
 0.70493394733E+00 0.68862324995E+00 0.90620609180E+00 0.92891021730E+00 0.99391769560E+00
 0.11021895653E+01 0.12551879447E+01 0.14479867220E+01 0.16682239682E+01 0.19002408330E+01
 0.21273751888E+01 0.23325473149E+01 0.24990789025E+01 0.26094474590E+01 0.26455032952E+01
 0.25983227398E+01 0.24799455807E+01 0.23167865942E+01 0.21273354019E+01 0.19142221274E+01
 0.16821610409E+01 0.14531845777E+01 0.12552191426E+01 0.11021694015E+01 0.99352665509E+00
 0.92767335586E+00 0.92847334727E+00 0.92923052324E+00 0.98819770664E+00 0.11039686044E+01
 0.12752202330E+01 0.14974714591E+01 0.17615912347E+01 0.20535418108E+01 0.23522711997E+01
 0.26310819053E+01 0.28663053089E+01 0.30420042370E+01 0.31421198403E+01 0.31456425773E+01
 0.30415681573E+01 0.28470704088E+01 0.25996365854E+01 0.23298702323E+01 0.20502758975E+01
 0.17696490629E+01 0.15059751269E+01 0.12802358337E+01 0.11055909704E+01 0.98745895294E+00
 0.99410258327E+00 0.95672244213E+00 0.99342294934E+00 0.11047157398E+01 0.12853050796E+01
 0.15259906300E+01 0.18190883100E+01 0.21562904150E+01 0.25195450962E+01 0.28780560532E+01
 0.31974823447E+01 0.34511246465E+01 0.36208449941E+01 0.36899783072E+01 0.36418466708E+01
 0.34708367516E+01 0.31956313003E+01 0.28573211830E+01 0.24999086427E+01 0.21515683245E+01
 0.18248032577E+01 0.15304529558E+01 0.12850278170E+01 0.11039515969E+01 0.11045754638E+01
 0.10165604457E+01 0.10121168532E+01 0.11009387358E+01 0.12804095328E+01 0.15325070416E+01
 0.18442658119E+01 0.22128597212E+01 0.26259806352E+01 0.30528420689E+01 0.34569767282E+01
 0.38040124694E+01 0.40589536114E+01 0.41939933267E+01 0.42005798699E+01 0.40812749911E+01
 0.38364487382E+01 0.34783666162E+01 0.30523233768E+01 0.26189912541E+01 0.22145327626E+01
 0.18466732149E+01 0.15256075278E+01 0.12737510264E+01 0.12552191282E+01 0.11119458891E+01
 0.10531158146E+01 0.10961836124E+01 0.12552049962E+01 0.15088352985E+01 0.18296685074E+01
 0.22170186284E+01 0.26696306161E+01 0.31540062674E+01 0.36278128271E+01 0.40640282282E+01
 0.44258364970E+01 0.46547776523E+01 0.47173414577E+01 0.46324894770E+01 0.44258411841E+01
 0.40945238260E+01 0.36492970383E+01 0.31517358676E+01 0.26696511722E+01 0.22258638605E+01
 0.18242273432E+01 0.14914379748E+01 0.14363426969E+01 0.12354048069E+01 0.11223835502E+01
 0.11031566546E+01 0.12147659220E+01 0.14523099150E+01 0.17703914096E+01 0.21564568606E+01
 0.26289211591E+01 0.31641594375E+01 0.36990112122E+01 0.42010653158E+01 0.46599861007E+01
 0.50162209426E+01 0.51835984256E+01 0.51467168796E+01 0.49600177661E+01 0.46531390171E+01
 0.42181846603E+01 0.36893286671E+01 0.31486311493E+01 0.26431179099E+01 0.21708495718E+01
 0.17520072171E+01 0.16440006609E+01 0.13746120541E+01 0.12139380999E+01 0.11340634967E+01
 0.11758970961E+01 0.13721956282E+01 0.16769941064E+01 0.20445166271E+01 0.25002069214E+01
 0.30590457811E+01 0.36517528786E+01 0.42063893135E+01 0.47222469840E+01 0.51860403732E+01
 0.54990103795E+01 0.55747376992E+01 0.54392249945E+01 0.51580788791E+01 0.47413349014E+01
 0.41989034393E+01 0.36111366495E+01 0.30571687892E+01 0.25386449559E+01 0.20486365475E+01
 0.18787883909E+01 0.15256790494E+01 0.13135161203E+01 0.11873738225E+01 0.11553722522E+01
 0.12825442214E+01 0.15591125004E+01 0.19081761439E+01 0.23216161101E+01 0.28529962445E+01
 0.34758750756E+01 0.40842834898E+01 0.46339191453E+01 0.51466238989E+01 0.55737580532E+01
 0.57958203050E+01 0.57707162947E+01 0.55573142874E+01 0.51910732767E+01 0.46668522021E+01
 0.40453529378E+01 0.34405267952E+01 0.28903155638E+01 0.23612252608E+01 0.21273354095E+01
 0.16921553740E+01 0.14122659261E+01 0.12478316227E+01 0.11578747219E+01 0.11989315727E+01
 0.14173153338E+01 0.17483567958E+01 0.21273368685E+01 0.25961784238E+01 0.31928982381E+01
 0.38361788448E+01 0.44258534919E+01 0.49582149239E+01 0.54367012405E+01 0.57696269163E+01
 0.58675002545E+01 0.57528230752E+01 0.54773853771E+01 0.50301866178E+01 0.44258412173E+01
 0.37807157313E+01 0.31950553804E+01 0.26521635613E+01 0.23544015424E+01 0.18681648935E+01
 0.15128870547E+01 0.13018457127E+01 0.11743695658E+01 0.11381421797E+01 0.12666395107E+01
 0.15529355407E+01 0.19103333051E+01 0.23222310195E+01 0.28479400097E+01 0.34730648201E+01
 0.40933419076E+01 0.46520162634E+01 0.51563714029E+01 0.55572094049E+01 0.57539149004E+01
 0.57276503259E+01 0.55395621111E+01 0.52011737016E+01 0.46838415994E+01 0.40509448606E+01
 0.34356611944E+01 0.28838853816E+01 0.25231660388E+01 0.20292386370E+01 0.16185881589E+01
 0.13497330065E+01 0.11909811130E+01 0.11060485357E+01 0.11425953166E+01 0.13448474140E+01
 0.16619159380E+01 0.20331324864E+01 0.24823805680E+01 0.30385931587E+01 0.36421441394E+01
 0.42144840355E+01 0.47389726640E+01 0.51915470040E+01 0.54799216994E+01 0.55407636712E+01
 0.54176295673E+01 0.51643172206E+01 0.47605619172E+01 0.42054253071E+01 0.35992021785E+01
 0.30399288224E+01 0.26187944759E+01 0.21450332646E+01 0.17183018638E+01 0.13990689464E+01
 0.12011894419E+01 0.10882202295E+01 0.10632604232E+01 0.11723830479E+01 0.14145902933E+01
 0.17370063309E+01 0.21225454693E+01 0.25949370406E+01 0.31351568936E+01 0.36784953922E+01
 0.41915729759E+01 0.46642808135E+01 0.50320136200E+01 0.52025293642E+01 0.51631293323E+01
 0.49740287023E+01 0.46615122448E+01 0.42120589758E+01 0.36670672534E+01 0.31210921796E+01
 0.26455033371E+01 0.21988131682E+01 0.17884591136E+01 0.14480681492E+01 0.12098631501E+01
 0.10674508878E+01 0.10085862678E+01 0.10511091522E+01 0.12098590213E+01 0.14629638938E+01
 0.17859062060E+01 0.21821254198E+01 0.26455238897E+01 0.31314810097E+01 0.35989236808E+01
 0.40389311508E+01 0.44258535323E+01 0.46861487426E+01 0.47604073733E+01 0.46600321837E+01
 0.44258365706E+01 0.40733434191E+01 0.36202690785E+01 0.31245240443E+01 0.26075941825E+01
 0.21921473882E+01 0.18109283093E+01 0.14812614126E+01 0.12228969585E+01 0.10472408695E+01
 0.95733230399E+00 0.95794782099E+00 0.10524237816E+01 0.12323881401E+01 0.14854703862E+01
 0.18087495128E+01 0.21970679556E+01 0.26221407830E+01 0.30428858138E+01 0.34335965627E+01
 0.37809986101E+01 0.40555818100E+01 0.42106819902E+01 0.42160538851E+01 0.40759121296E+01
 0.38131506309E+01 0.34554173463E+01 0.30393509518E+01 0.25039709115E+01 0.21344036040E+01
 0.17858381688E+01 0.14832997479E+01 0.12344794841E+01 0.10421876934E+01 0.92017395732E+00
 0.88333413219E+00 0.93022139625E+00 0.10485043712E+01 0.12320251898E+01 0.14811777156E+01
 0.17907982178E+01 0.21454565687E+01 0.25207090386E+01 0.28831155935E+01 0.31977902498E+01
 0.34428807372E+01 0.36087005433E+01 0.36797299941E+01 0.36327048373E+01 0.34618222012E+01
 0.31931663209E+01 0.28646659564E+01 0.23386638953E+01 0.20327388759E+01 0.17255149759E+01
 0.14533035058E+01 0.12312360092E+01 0.10505229995E+01 0.91467284145E+00 0.84582518769E+00
 0.85187115234E+00 0.91902610900E+00 0.10399484384E+01 0.12195395273E+01 0.14522846244E+01
 0.17226512141E+01 0.20245765907E+01 0.23488506938E+01 0.26556219608E+01 0.28945465892E+01
 0.30504899033E+01 0.31363223215E+01 0.31463856982E+01 0.30565525921E+01 0.28695001577E+01
 0.26208866319E+01 0.21273752066E+01 0.18923936480E+01 0.16404119987E+01 0.14031669385E+01
 0.12098470171E+01 0.10566147546E+01 0.93294445564E+00 0.85253208742E+00 0.83066817382E+00
 0.85828397575E+00 0.92532940895E+00 0.10417476965E+01 0.12098590011E+01 0.14066479614E+01
 0.16186954992E+01 0.18601889914E+01 0.21273368787E+01 0.23695792486E+01 0.25383673214E+01
 0.26332336783E+01 0.26696306541E+01 0.26361039804E+01 0.25189691908E+01 0.23389418452E+01
 0.18928175720E+01 0.17232479892E+01 0.15353803402E+01 0.13449473495E+01 0.11828709632E+01
 0.10586625742E+01 0.96012972126E+00 0.88835693261E+00 0.85763819456E+00 0.86424375551E+00
 0.89319677863E+00 0.95237786355E+00 0.10604817086E+01 0.12051567424E+01 0.13547100403E+01
 0.15078973189E+01 0.16876065716E+01 0.18850444031E+01 0.20543792608E+01 0.21658754527E+01
 0.22233325309E+01 0.22275678169E+01 0.21661530731E+01 0.20453185567E+01 0.16579070998E+01
 0.15429704811E+01 0.14171892474E+01 0.12841805326E+01 0.11642259238E+01 0.10726968447E+01
 0.10034448186E+01 0.95026707798E+00 0.92262757288E+00 0.92322876306E+00 0.93538281923E+00
 0.95303963571E+00 0.99826940765E+00 0.10861715089E+01 0.11961326457E+01 0.13018150923E+01
 0.14069984667E+01 0.15261181376E+01 0.16491506158E+01 0.17511101747E+01 0.18193516266E+01
 0.18491112537E+01 0.18299811311E+01 0.17599518730E+01 0.14414644522E+01 0.13718466219E+01
 0.12990575071E+01 0.12243131873E+01 0.11566845319E+01 0.11081025380E+01 0.10767797545E+01
 0.10528828384E+01 0.10375630868E+01 0.10378841542E+01 0.10462705912E+01 0.10470310876E+01
 0.10441327729E+01 0.10612262661E+01 0.11101314692E+01 0.11774006832E+01 0.12457362610E+01
 0.13114557134E+01 0.13762785699E+01 0.14371116160E+01 0.14885758690E+01 0.15235787042E+01