   3   3   1   0
  0.1083567E+03  0.3190316E-09  0.3190316E-09  0.3687900E-08  0.5000000E-15
  1.000000000000000E-004
  CAR 
 unknown system                          
     12.00000000    -12.00000000 2401     -3.29000000      1.00000000
    -12.000  0.4000E+03  0.4000E+01
    -11.990  0.0000E+00  0.4000E+01
    -11.980  0.0000E+00  0.4000E+01
    -11.970  0.0000E+00  0.4000E+01
    -11.960  0.0000E+00  0.4000E+01
    -11.950  0.0000E+00  0.4000E+01
    -11.940  0.0000E+00  0.4000E+01
    -11.930  0.0000E+00  0.4000E+01
    -11.920  0.0000E+00  0.4000E+01
    -11.910  0.0000E+00  0.4000E+01
    -11.900  0.0000E+00  0.4000E+01
    -11.890  0.0000E+00  0.4000E+01
    -11.880  0.0000E+00  0.4000E+01
    -11.870  0.0000E+00  0.4000E+01
    -11.860  0.0000E+00  0.4000E+01
    -11.850  0.0000E+00  0.4000E+01
    -11.840  0.0000E+00  0.4000E+01
    -11.830  0.0000E+00  0.4000E+01
    -11.820  0.0000E+00  0.4000E+01
    -11.810  0.0000E+00  0.4000E+01
    -11.800  0.0000E+00  0.4000E+01
    -11.790  0.0000E+00  0.4000E+01
    -11.780  0.0000E+00  0.4000E+01
    -11.770  0.0000E+00  0.4000E+01
    -11.760  0.0000E+00  0.4000E+01
    -11.750  0.0000E+00  0.4000E+01
    -11.740  0.0000E+00  0.4000E+01
    -11.730  0.0000E+00  0.4000E+01
    -11.720  0.0000E+00  0.4000E+01
    -11.710  0.0000E+00  0.4000E+01
    -11.700  0.0000E+00  0.4000E+01
    -11.690  0.0000E+00  0.4000E+01
    -11.680  0.0000E+00  0.4000E+01
    -11.670  0.0000E+00  0.4000E+01
    -11.660  0.0000E+00  0.4000E+01
    -11.650  0.0000E+00  0.4000E+01
    -11.640  0.0000E+00  0.4000E+01
    -11.630  0.0000E+00  0.4000E+01
    -11.620  0.0000E+00  0.4000E+01
    -11.610  0.0000E+00  0.4000E+01
    -11.600  0.0000E+00  0.4000E+01
    -11.590  0.0000E+00  0.4000E+01
    -11.580  0.0000E+00  0.4000E+01
    -11.570  0.0000E+00  0.4000E+01
    -11.560  0.0000E+00  0.4000E+01
    -11.550  0.0000E+00  0.4000E+01
    -11.540  0.0000E+00  0.4000E+01
    -11.530  0.0000E+00  0.4000E+01
    -11.520  0.0000E+00  0.4000E+01
    -11.510  0.0000E+00  0.4000E+01
    -11.500  0.0000E+00  0.4000E+01
    -11.490  0.0000E+00  0.4000E+01
    -11.480  0.0000E+00  0.4000E+01
    -11.470  0.0000E+00  0.4000E+01
    -11.460  0.0000E+00  0.4000E+01
    -11.450  0.0000E+00  0.4000E+01
    -11.440  0.0000E+00  0.4000E+01
    -11.430  0.0000E+00  0.4000E+01
    -11.420  0.0000E+00  0.4000E+01
    -11.410  0.0000E+00  0.4000E+01
    -11.400  0.0000E+00  0.4000E+01
    -11.390  0.0000E+00  0.4000E+01
    -11.380  0.0000E+00  0.4000E+01
    -11.370  0.0000E+00  0.4000E+01
    -11.360  0.0000E+00  0.4000E+01
    -11.350  0.0000E+00  0.4000E+01
    -11.340  0.0000E+00  0.4000E+01
    -11.330  0.0000E+00  0.4000E+01
    -11.320  0.0000E+00  0.4000E+01
    -11.310  0.0000E+00  0.4000E+01
    -11.300  0.0000E+00  0.4000E+01
    -11.290  0.0000E+00  0.4000E+01
    -11.280  0.0000E+00  0.4000E+01
    -11.270  0.0000E+00  0.4000E+01
    -11.260  0.0000E+00  0.4000E+01
    -11.250  0.0000E+00  0.4000E+01
    -11.240  0.0000E+00  0.4000E+01
    -11.230  0.0000E+00  0.4000E+01
    -11.220  0.0000E+00  0.4000E+01
    -11.210  0.0000E+00  0.4000E+01
    -11.200  0.0000E+00  0.4000E+01
    -11.190  0.0000E+00  0.4000E+01
    -11.180  0.0000E+00  0.4000E+01
    -11.170  0.0000E+00  0.4000E+01
    -11.160  0.0000E+00  0.4000E+01
    -11.150  0.0000E+00  0.4000E+01
    -11.140  0.0000E+00  0.4000E+01
    -11.130  0.0000E+00  0.4000E+01
    -11.120  0.0000E+00  0.4000E+01
    -11.110  0.0000E+00  0.4000E+01
    -11.100  0.0000E+00  0.4000E+01
    -11.090  0.0000E+00  0.4000E+01
    -11.080  0.0000E+00  0.4000E+01
    -11.070  0.0000E+00  0.4000E+01
    -11.060  0.0000E+00  0.4000E+01
    -11.050  0.0000E+00  0.4000E+01
    -11.040  0.0000E+00  0.4000E+01
    -11.030  0.0000E+00  0.4000E+01
    -11.020  0.0000E+00  0.4000E+01
    -11.010  0.0000E+00  0.4000E+01
    -11.000  0.5204E-15  0.4000E+01
    -10.990  0.0000E+00  0.4000E+01
    -10.980  0.1041E-14  0.4000E+01
    -10.970  0.1041E-14  0.4000E+01
    -10.960  0.2082E-14  0.4000E+01
    -10.950  0.3123E-14  0.4000E+01
    -10.940  0.6245E-14  0.4000E+01
    -10.930  0.1093E-13  0.4000E+01
    -10.920  0.1821E-13  0.4000E+01
    -10.910  0.3227E-13  0.4000E+01
    -10.900  0.5516E-13  0.4000E+01
    -10.890  0.9472E-13  0.4000E+01
    -10.880  0.1613E-12  0.4000E+01
    -10.870  0.2737E-12  0.4000E+01
    -10.860  0.4611E-12  0.4000E+01
    -10.850  0.7739E-12  0.4000E+01
    -10.840  0.1292E-11  0.4000E+01
    -10.830  0.2147E-11  0.4000E+01
    -10.820  0.3550E-11  0.4000E+01
    -10.810  0.5839E-11  0.4000E+01
    -10.800  0.9558E-11  0.4000E+01
    -10.790  0.1557E-10  0.4000E+01
    -10.780  0.2523E-10  0.4000E+01
    -10.770  0.4068E-10  0.4000E+01
    -10.760  0.6526E-10  0.4000E+01
    -10.750  0.1042E-09  0.4000E+01
    -10.740  0.1655E-09  0.4000E+01
    -10.730  0.2616E-09  0.4000E+01
    -10.720  0.4114E-09  0.4000E+01
    -10.710  0.6437E-09  0.4000E+01
    -10.700  0.1002E-08  0.4000E+01
    -10.690  0.1553E-08  0.4000E+01
    -10.680  0.2394E-08  0.4000E+01
    -10.670  0.3671E-08  0.4000E+01
    -10.660  0.5603E-08  0.4000E+01
    -10.650  0.8509E-08  0.4000E+01
    -10.640  0.1286E-07  0.4000E+01
    -10.630  0.1933E-07  0.4000E+01
    -10.620  0.2892E-07  0.4000E+01
    -10.610  0.4305E-07  0.4000E+01
    -10.600  0.6376E-07  0.4000E+01
    -10.590  0.9396E-07  0.4000E+01
    -10.580  0.1378E-06  0.4000E+01
    -10.570  0.2010E-06  0.4000E+01
    -10.560  0.2919E-06  0.4000E+01
    -10.550  0.4217E-06  0.4000E+01
    -10.540  0.6061E-06  0.4000E+01
    -10.530  0.8669E-06  0.4000E+01
    -10.520  0.1234E-05  0.4000E+01
    -10.510  0.1747E-05  0.4000E+01
    -10.500  0.2461E-05  0.4000E+01
    -10.490  0.3451E-05  0.4000E+01
    -10.480  0.4813E-05  0.4000E+01
    -10.470  0.6681E-05  0.4000E+01
    -10.460  0.9228E-05  0.4000E+01
    -10.450  0.1268E-04  0.4000E+01
    -10.440  0.1734E-04  0.4000E+01
    -10.430  0.2359E-04  0.4000E+01
    -10.420  0.3194E-04  0.4000E+01
    -10.410  0.4303E-04  0.4000E+01
    -10.400  0.5767E-04  0.4000E+01
    -10.390  0.7692E-04  0.4000E+01
    -10.380  0.1021E-03  0.4000E+01
    -10.370  0.1348E-03  0.4000E+01
    -10.360  0.1771E-03  0.4000E+01
    -10.350  0.2316E-03  0.4000E+01
    -10.340  0.3012E-03  0.4000E+01
    -10.330  0.3899E-03  0.4000E+01
    -10.320  0.5023E-03  0.4000E+01
    -10.310  0.6437E-03  0.4000E+01
    -10.300  0.8210E-03  0.4000E+01
    -10.290  0.1042E-02  0.4000E+01
    -10.280  0.1316E-02  0.4000E+01
    -10.270  0.1653E-02  0.4000E+01
    -10.260  0.2067E-02  0.4000E+01
    -10.250  0.2571E-02  0.4000E+01
    -10.240  0.3183E-02  0.4000E+01
    -10.230  0.3921E-02  0.4000E+01
    -10.220  0.4806E-02  0.4000E+01
    -10.210  0.5863E-02  0.4000E+01
    -10.200  0.7117E-02  0.4000E+01
    -10.190  0.8596E-02  0.4000E+01
    -10.180  0.1033E-01  0.4001E+01
    -10.170  0.1236E-01  0.4001E+01
    -10.160  0.1471E-01  0.4001E+01
    -10.150  0.1743E-01  0.4001E+01
    -10.140  0.2055E-01  0.4001E+01
    -10.130  0.2411E-01  0.4001E+01
    -10.120  0.2816E-01  0.4002E+01
    -10.110  0.3272E-01  0.4002E+01
    -10.100  0.3785E-01  0.4002E+01
    -10.090  0.4358E-01  0.4003E+01
    -10.080  0.4994E-01  0.4003E+01
    -10.070  0.5697E-01  0.4004E+01
    -10.060  0.6470E-01  0.4005E+01
    -10.050  0.7315E-01  0.4005E+01
    -10.040  0.8233E-01  0.4006E+01
    -10.030  0.9227E-01  0.4007E+01
    -10.020  0.1030E+00  0.4008E+01
    -10.010  0.1144E+00  0.4009E+01
    -10.000  0.1267E+00  0.4011E+01
     -9.990  0.1396E+00  0.4012E+01
     -9.980  0.1534E+00  0.4013E+01
     -9.970  0.1678E+00  0.4015E+01
     -9.960  0.1830E+00  0.4017E+01
     -9.950  0.1989E+00  0.4019E+01
     -9.940  0.2156E+00  0.4021E+01
     -9.930  0.2329E+00  0.4023E+01
     -9.920  0.2510E+00  0.4026E+01
     -9.910  0.2698E+00  0.4029E+01
     -9.900  0.2894E+00  0.4032E+01
     -9.890  0.3099E+00  0.4035E+01
     -9.880  0.3313E+00  0.4038E+01
     -9.870  0.3537E+00  0.4041E+01
     -9.860  0.3772E+00  0.4045E+01
     -9.850  0.4020E+00  0.4049E+01
     -9.840  0.4282E+00  0.4054E+01
     -9.830  0.4561E+00  0.4058E+01
     -9.820  0.4857E+00  0.4063E+01
     -9.810  0.5173E+00  0.4068E+01
     -9.800  0.5511E+00  0.4074E+01
     -9.790  0.5874E+00  0.4080E+01
     -9.780  0.6264E+00  0.4086E+01
     -9.770  0.6682E+00  0.4092E+01
     -9.760  0.7130E+00  0.4100E+01
     -9.750  0.7611E+00  0.4107E+01
     -9.740  0.8126E+00  0.4115E+01
     -9.730  0.8675E+00  0.4124E+01
     -9.720  0.9259E+00  0.4133E+01
     -9.710  0.9877E+00  0.4143E+01
     -9.700  0.1053E+01  0.4154E+01
     -9.690  0.1121E+01  0.4165E+01
     -9.680  0.1193E+01  0.4177E+01
     -9.670  0.1267E+01  0.4189E+01
     -9.660  0.1344E+01  0.4203E+01
     -9.650  0.1423E+01  0.4217E+01
     -9.640  0.1503E+01  0.4232E+01
     -9.630  0.1584E+01  0.4248E+01
     -9.620  0.1666E+01  0.4265E+01
     -9.610  0.1747E+01  0.4282E+01
     -9.600  0.1828E+01  0.4300E+01
     -9.590  0.1906E+01  0.4320E+01
     -9.580  0.1983E+01  0.4339E+01
     -9.570  0.2057E+01  0.4360E+01
     -9.560  0.2127E+01  0.4381E+01
     -9.550  0.2193E+01  0.4403E+01
     -9.540  0.2254E+01  0.4426E+01
     -9.530  0.2311E+01  0.4449E+01
     -9.520  0.2361E+01  0.4472E+01
     -9.510  0.2407E+01  0.4496E+01
     -9.500  0.2446E+01  0.4521E+01
     -9.490  0.2479E+01  0.4546E+01
     -9.480  0.2506E+01  0.4571E+01
     -9.470  0.2528E+01  0.4596E+01
     -9.460  0.2544E+01  0.4621E+01
     -9.450  0.2555E+01  0.4647E+01
     -9.440  0.2562E+01  0.4673E+01
     -9.430  0.2565E+01  0.4698E+01
     -9.420  0.2564E+01  0.4724E+01
     -9.410  0.2561E+01  0.4750E+01
     -9.400  0.2556E+01  0.4775E+01
     -9.390  0.2551E+01  0.4801E+01
     -9.380  0.2545E+01  0.4826E+01
     -9.370  0.2541E+01  0.4851E+01
     -9.360  0.2538E+01  0.4877E+01
     -9.350  0.2538E+01  0.4902E+01
     -9.340  0.2542E+01  0.4928E+01
     -9.330  0.2549E+01  0.4953E+01
     -9.320  0.2562E+01  0.4979E+01
     -9.310  0.2580E+01  0.5005E+01
     -9.300  0.2604E+01  0.5031E+01
     -9.290  0.2635E+01  0.5057E+01
     -9.280  0.2672E+01  0.5084E+01
     -9.270  0.2715E+01  0.5111E+01
     -9.260  0.2765E+01  0.5138E+01
     -9.250  0.2821E+01  0.5167E+01
     -9.240  0.2883E+01  0.5196E+01
     -9.230  0.2950E+01  0.5225E+01
     -9.220  0.3022E+01  0.5255E+01
     -9.210  0.3099E+01  0.5286E+01
     -9.200  0.3179E+01  0.5318E+01
     -9.190  0.3262E+01  0.5351E+01
     -9.180  0.3346E+01  0.5384E+01
     -9.170  0.3431E+01  0.5418E+01
     -9.160  0.3515E+01  0.5454E+01
     -9.150  0.3598E+01  0.5490E+01
     -9.140  0.3678E+01  0.5526E+01
     -9.130  0.3755E+01  0.5564E+01
     -9.120  0.3827E+01  0.5602E+01
     -9.110  0.3894E+01  0.5641E+01
     -9.100  0.3954E+01  0.5681E+01
     -9.090  0.4006E+01  0.5721E+01
     -9.080  0.4051E+01  0.5761E+01
     -9.070  0.4087E+01  0.5802E+01
     -9.060  0.4113E+01  0.5843E+01
     -9.050  0.4129E+01  0.5884E+01
     -9.040  0.4134E+01  0.5926E+01
     -9.030  0.4129E+01  0.5967E+01
     -9.020  0.4114E+01  0.6008E+01
     -9.010  0.4087E+01  0.6049E+01
     -9.000  0.4049E+01  0.6090E+01
     -8.990  0.4000E+01  0.6130E+01
     -8.980  0.3940E+01  0.6169E+01
     -8.970  0.3871E+01  0.6208E+01
     -8.960  0.3791E+01  0.6246E+01
     -8.950  0.3702E+01  0.6283E+01
     -8.940  0.3604E+01  0.6319E+01
     -8.930  0.3499E+01  0.6354E+01
     -8.920  0.3386E+01  0.6387E+01
     -8.910  0.3266E+01  0.6420E+01
     -8.900  0.3142E+01  0.6452E+01
     -8.890  0.3012E+01  0.6482E+01
     -8.880  0.2879E+01  0.6510E+01
     -8.870  0.2743E+01  0.6538E+01
     -8.860  0.2606E+01  0.6564E+01
     -8.850  0.2467E+01  0.6589E+01
     -8.840  0.2330E+01  0.6612E+01
     -8.830  0.2193E+01  0.6634E+01
     -8.820  0.2058E+01  0.6654E+01
     -8.810  0.1927E+01  0.6674E+01
     -8.800  0.1799E+01  0.6692E+01
     -8.790  0.1676E+01  0.6708E+01
     -8.780  0.1558E+01  0.6724E+01
     -8.770  0.1446E+01  0.6739E+01
     -8.760  0.1340E+01  0.6752E+01
     -8.750  0.1241E+01  0.6764E+01
     -8.740  0.1150E+01  0.6776E+01
     -8.730  0.1065E+01  0.6786E+01
     -8.720  0.9877E+00  0.6796E+01
     -8.710  0.9180E+00  0.6806E+01
     -8.700  0.8556E+00  0.6814E+01
     -8.690  0.8006E+00  0.6822E+01
     -8.680  0.7526E+00  0.6830E+01
     -8.670  0.7114E+00  0.6837E+01
     -8.660  0.6767E+00  0.6844E+01
     -8.650  0.6481E+00  0.6850E+01
     -8.640  0.6251E+00  0.6856E+01
     -8.630  0.6072E+00  0.6862E+01
     -8.620  0.5939E+00  0.6868E+01
     -8.610  0.5848E+00  0.6874E+01
     -8.600  0.5793E+00  0.6880E+01
     -8.590  0.5768E+00  0.6886E+01
     -8.580  0.5770E+00  0.6891E+01
     -8.570  0.5793E+00  0.6897E+01
     -8.560  0.5832E+00  0.6903E+01
     -8.550  0.5885E+00  0.6909E+01
     -8.540  0.5948E+00  0.6915E+01
     -8.530  0.6017E+00  0.6921E+01
     -8.520  0.6091E+00  0.6927E+01
     -8.510  0.6170E+00  0.6933E+01
     -8.500  0.6251E+00  0.6939E+01
     -8.490  0.6335E+00  0.6946E+01
     -8.480  0.6423E+00  0.6952E+01
     -8.470  0.6516E+00  0.6959E+01
     -8.460  0.6617E+00  0.6965E+01
     -8.450  0.6729E+00  0.6972E+01
     -8.440  0.6854E+00  0.6979E+01
     -8.430  0.6998E+00  0.6986E+01
     -8.420  0.7163E+00  0.6993E+01
     -8.410  0.7355E+00  0.7000E+01
     -8.400  0.7579E+00  0.7008E+01
     -8.390  0.7838E+00  0.7016E+01
     -8.380  0.8138E+00  0.7024E+01
     -8.370  0.8483E+00  0.7032E+01
     -8.360  0.8878E+00  0.7041E+01
     -8.350  0.9325E+00  0.7051E+01
     -8.340  0.9830E+00  0.7060E+01
     -8.330  0.1039E+01  0.7071E+01
     -8.320  0.1102E+01  0.7082E+01
     -8.310  0.1170E+01  0.7094E+01
     -8.300  0.1245E+01  0.7106E+01
     -8.290  0.1327E+01  0.7119E+01
     -8.280  0.1414E+01  0.7133E+01
     -8.270  0.1507E+01  0.7149E+01
     -8.260  0.1606E+01  0.7165E+01
     -8.250  0.1711E+01  0.7182E+01
     -8.240  0.1820E+01  0.7200E+01
     -8.230  0.1933E+01  0.7219E+01
     -8.220  0.2051E+01  0.7240E+01
     -8.210  0.2171E+01  0.7261E+01
     -8.200  0.2294E+01  0.7284E+01
     -8.190  0.2419E+01  0.7309E+01
     -8.180  0.2545E+01  0.7334E+01
     -8.170  0.2672E+01  0.7361E+01
     -8.160  0.2797E+01  0.7389E+01
     -8.150  0.2922E+01  0.7418E+01
     -8.140  0.3044E+01  0.7448E+01
     -8.130  0.3164E+01  0.7480E+01
     -8.120  0.3279E+01  0.7513E+01
     -8.110  0.3391E+01  0.7547E+01
     -8.100  0.3497E+01  0.7582E+01
     -8.090  0.3598E+01  0.7618E+01
     -8.080  0.3692E+01  0.7655E+01
     -8.070  0.3779E+01  0.7692E+01
     -8.060  0.3858E+01  0.7731E+01
     -8.050  0.3929E+01  0.7770E+01
     -8.040  0.3992E+01  0.7810E+01
     -8.030  0.4046E+01  0.7851E+01
     -8.020  0.4091E+01  0.7892E+01
     -8.010  0.4127E+01  0.7933E+01
     -8.000  0.4153E+01  0.7974E+01
     -7.990  0.4170E+01  0.8016E+01
     -7.980  0.4178E+01  0.8058E+01
     -7.970  0.4177E+01  0.8100E+01
     -7.960  0.4166E+01  0.8141E+01
     -7.950  0.4147E+01  0.8183E+01
     -7.940  0.4120E+01  0.8224E+01
     -7.930  0.4085E+01  0.8265E+01
     -7.920  0.4043E+01  0.8305E+01
     -7.910  0.3994E+01  0.8345E+01
     -7.900  0.3939E+01  0.8385E+01
     -7.890  0.3879E+01  0.8423E+01
     -7.880  0.3814E+01  0.8461E+01
     -7.870  0.3745E+01  0.8499E+01
     -7.860  0.3672E+01  0.8536E+01
     -7.850  0.3597E+01  0.8572E+01
     -7.840  0.3519E+01  0.8607E+01
     -7.830  0.3440E+01  0.8641E+01
     -7.820  0.3359E+01  0.8675E+01
     -7.810  0.3278E+01  0.8708E+01
     -7.800  0.3196E+01  0.8740E+01
     -7.790  0.3115E+01  0.8771E+01
     -7.780  0.3034E+01  0.8801E+01
     -7.770  0.2953E+01  0.8831E+01
     -7.760  0.2873E+01  0.8859E+01
     -7.750  0.2794E+01  0.8887E+01
     -7.740  0.2716E+01  0.8914E+01
     -7.730  0.2639E+01  0.8941E+01
     -7.720  0.2563E+01  0.8966E+01
     -7.710  0.2488E+01  0.8991E+01
     -7.700  0.2415E+01  0.9015E+01
     -7.690  0.2343E+01  0.9039E+01
     -7.680  0.2272E+01  0.9062E+01
     -7.670  0.2204E+01  0.9084E+01
     -7.660  0.2137E+01  0.9105E+01
     -7.650  0.2073E+01  0.9126E+01
     -7.640  0.2012E+01  0.9146E+01
     -7.630  0.1954E+01  0.9165E+01
     -7.620  0.1900E+01  0.9184E+01
     -7.610  0.1850E+01  0.9203E+01
     -7.600  0.1806E+01  0.9221E+01
     -7.590  0.1767E+01  0.9239E+01
     -7.580  0.1735E+01  0.9256E+01
     -7.570  0.1711E+01  0.9273E+01
     -7.560  0.1695E+01  0.9290E+01
     -7.550  0.1688E+01  0.9307E+01
     -7.540  0.1691E+01  0.9324E+01
     -7.530  0.1704E+01  0.9341E+01
     -7.520  0.1728E+01  0.9358E+01
     -7.510  0.1764E+01  0.9376E+01
     -7.500  0.1812E+01  0.9394E+01
     -7.490  0.1872E+01  0.9413E+01
     -7.480  0.1944E+01  0.9432E+01
     -7.470  0.2028E+01  0.9452E+01
     -7.460  0.2125E+01  0.9474E+01
     -7.450  0.2233E+01  0.9496E+01
     -7.440  0.2352E+01  0.9519E+01
     -7.430  0.2481E+01  0.9544E+01
     -7.420  0.2619E+01  0.9570E+01
     -7.410  0.2765E+01  0.9598E+01
     -7.400  0.2917E+01  0.9627E+01
     -7.390  0.3075E+01  0.9658E+01
     -7.380  0.3236E+01  0.9690E+01
     -7.370  0.3399E+01  0.9724E+01
     -7.360  0.3562E+01  0.9760E+01
     -7.350  0.3723E+01  0.9797E+01
     -7.340  0.3881E+01  0.9836E+01
     -7.330  0.4033E+01  0.9876E+01
     -7.320  0.4179E+01  0.9918E+01
     -7.310  0.4315E+01  0.9961E+01
     -7.300  0.4441E+01  0.1001E+02
     -7.290  0.4556E+01  0.1005E+02
     -7.280  0.4658E+01  0.1010E+02
     -7.270  0.4746E+01  0.1015E+02
     -7.260  0.4818E+01  0.1019E+02
     -7.250  0.4876E+01  0.1024E+02
     -7.240  0.4917E+01  0.1029E+02
     -7.230  0.4943E+01  0.1034E+02
     -7.220  0.4952E+01  0.1039E+02
     -7.210  0.4945E+01  0.1044E+02
     -7.200  0.4923E+01  0.1049E+02
     -7.190  0.4885E+01  0.1054E+02
     -7.180  0.4833E+01  0.1059E+02
     -7.170  0.4768E+01  0.1063E+02
     -7.160  0.4689E+01  0.1068E+02
     -7.150  0.4600E+01  0.1073E+02
     -7.140  0.4500E+01  0.1077E+02
     -7.130  0.4390E+01  0.1082E+02
     -7.120  0.4272E+01  0.1086E+02
     -7.110  0.4148E+01  0.1090E+02
     -7.100  0.4017E+01  0.1094E+02
     -7.090  0.3882E+01  0.1098E+02
     -7.080  0.3744E+01  0.1102E+02
     -7.070  0.3603E+01  0.1105E+02
     -7.060  0.3461E+01  0.1109E+02
     -7.050  0.3319E+01  0.1112E+02
     -7.040  0.3178E+01  0.1115E+02
     -7.030  0.3038E+01  0.1118E+02
     -7.020  0.2901E+01  0.1121E+02
     -7.010  0.2767E+01  0.1124E+02
     -7.000  0.2637E+01  0.1127E+02
     -6.990  0.2512E+01  0.1129E+02
     -6.980  0.2392E+01  0.1131E+02
     -6.970  0.2278E+01  0.1134E+02
     -6.960  0.2171E+01  0.1136E+02
     -6.950  0.2070E+01  0.1138E+02
     -6.940  0.1977E+01  0.1140E+02
     -6.930  0.1891E+01  0.1142E+02
     -6.920  0.1813E+01  0.1144E+02
     -6.910  0.1743E+01  0.1145E+02
     -6.900  0.1682E+01  0.1147E+02
     -6.890  0.1628E+01  0.1149E+02
     -6.880  0.1583E+01  0.1150E+02
     -6.870  0.1546E+01  0.1152E+02
     -6.860  0.1516E+01  0.1153E+02
     -6.850  0.1494E+01  0.1155E+02
     -6.840  0.1480E+01  0.1156E+02
     -6.830  0.1472E+01  0.1158E+02
     -6.820  0.1471E+01  0.1159E+02
     -6.810  0.1476E+01  0.1161E+02
     -6.800  0.1485E+01  0.1162E+02
     -6.790  0.1500E+01  0.1164E+02
     -6.780  0.1519E+01  0.1165E+02
     -6.770  0.1541E+01  0.1167E+02
     -6.760  0.1565E+01  0.1168E+02
     -6.750  0.1592E+01  0.1170E+02
     -6.740  0.1620E+01  0.1172E+02
     -6.730  0.1648E+01  0.1173E+02
     -6.720  0.1676E+01  0.1175E+02
     -6.710  0.1704E+01  0.1177E+02
     -6.700  0.1730E+01  0.1178E+02
     -6.690  0.1755E+01  0.1180E+02
     -6.680  0.1777E+01  0.1182E+02
     -6.670  0.1796E+01  0.1184E+02
     -6.660  0.1812E+01  0.1185E+02
     -6.650  0.1825E+01  0.1187E+02
     -6.640  0.1834E+01  0.1189E+02
     -6.630  0.1838E+01  0.1191E+02
     -6.620  0.1839E+01  0.1193E+02
     -6.610  0.1835E+01  0.1195E+02
     -6.600  0.1827E+01  0.1196E+02
     -6.590  0.1815E+01  0.1198E+02
     -6.580  0.1798E+01  0.1200E+02
     -6.570  0.1778E+01  0.1202E+02
     -6.560  0.1753E+01  0.1204E+02
     -6.550  0.1725E+01  0.1205E+02
     -6.540  0.1693E+01  0.1207E+02
     -6.530  0.1658E+01  0.1209E+02
     -6.520  0.1621E+01  0.1210E+02
     -6.510  0.1581E+01  0.1212E+02
     -6.500  0.1539E+01  0.1213E+02
     -6.490  0.1496E+01  0.1215E+02
     -6.480  0.1452E+01  0.1216E+02
     -6.470  0.1407E+01  0.1218E+02
     -6.460  0.1363E+01  0.1219E+02
     -6.450  0.1319E+01  0.1220E+02
     -6.440  0.1278E+01  0.1222E+02
     -6.430  0.1238E+01  0.1223E+02
     -6.420  0.1201E+01  0.1224E+02
     -6.410  0.1167E+01  0.1225E+02
     -6.400  0.1138E+01  0.1226E+02
     -6.390  0.1114E+01  0.1228E+02
     -6.380  0.1095E+01  0.1229E+02
     -6.370  0.1083E+01  0.1230E+02
     -6.360  0.1077E+01  0.1231E+02
     -6.350  0.1078E+01  0.1232E+02
     -6.340  0.1088E+01  0.1233E+02
     -6.330  0.1106E+01  0.1234E+02
     -6.320  0.1134E+01  0.1235E+02
     -6.310  0.1170E+01  0.1236E+02
     -6.300  0.1216E+01  0.1238E+02
     -6.290  0.1272E+01  0.1239E+02
     -6.280  0.1338E+01  0.1240E+02
     -6.270  0.1413E+01  0.1242E+02
     -6.260  0.1499E+01  0.1243E+02
     -6.250  0.1595E+01  0.1245E+02
     -6.240  0.1699E+01  0.1246E+02
     -6.230  0.1813E+01  0.1248E+02
     -6.220  0.1936E+01  0.1250E+02
     -6.210  0.2066E+01  0.1252E+02
     -6.200  0.2204E+01  0.1254E+02
     -6.190  0.2349E+01  0.1257E+02
     -6.180  0.2499E+01  0.1259E+02
     -6.170  0.2653E+01  0.1262E+02
     -6.160  0.2812E+01  0.1265E+02
     -6.150  0.2973E+01  0.1268E+02
     -6.140  0.3136E+01  0.1271E+02
     -6.130  0.3299E+01  0.1274E+02
     -6.120  0.3461E+01  0.1278E+02
     -6.110  0.3622E+01  0.1281E+02
     -6.100  0.3779E+01  0.1285E+02
     -6.090  0.3932E+01  0.1289E+02
     -6.080  0.4080E+01  0.1293E+02
     -6.070  0.4221E+01  0.1297E+02
     -6.060  0.4355E+01  0.1302E+02
     -6.050  0.4481E+01  0.1306E+02
     -6.040  0.4597E+01  0.1311E+02
     -6.030  0.4703E+01  0.1315E+02
     -6.020  0.4798E+01  0.1320E+02
     -6.010  0.4882E+01  0.1325E+02
     -6.000  0.4953E+01  0.1330E+02
     -5.990  0.5012E+01  0.1335E+02
     -5.980  0.5057E+01  0.1340E+02
     -5.970  0.5090E+01  0.1345E+02
     -5.960  0.5108E+01  0.1350E+02
     -5.950  0.5114E+01  0.1355E+02
     -5.940  0.5106E+01  0.1361E+02
     -5.930  0.5084E+01  0.1366E+02
     -5.920  0.5049E+01  0.1371E+02
     -5.910  0.5002E+01  0.1376E+02
     -5.900  0.4942E+01  0.1381E+02
     -5.890  0.4870E+01  0.1385E+02
     -5.880  0.4787E+01  0.1390E+02
     -5.870  0.4693E+01  0.1395E+02
     -5.860  0.4589E+01  0.1400E+02
     -5.850  0.4476E+01  0.1404E+02
     -5.840  0.4355E+01  0.1408E+02
     -5.830  0.4227E+01  0.1413E+02
     -5.820  0.4093E+01  0.1417E+02
     -5.810  0.3953E+01  0.1421E+02
     -5.800  0.3810E+01  0.1424E+02
     -5.790  0.3663E+01  0.1428E+02
     -5.780  0.3514E+01  0.1432E+02
     -5.770  0.3365E+01  0.1435E+02
     -5.760  0.3216E+01  0.1438E+02
     -5.750  0.3069E+01  0.1441E+02
     -5.740  0.2924E+01  0.1444E+02
     -5.730  0.2783E+01  0.1447E+02
     -5.720  0.2646E+01  0.1450E+02
     -5.710  0.2515E+01  0.1452E+02
     -5.700  0.2391E+01  0.1455E+02
     -5.690  0.2273E+01  0.1457E+02
     -5.680  0.2164E+01  0.1459E+02
     -5.670  0.2063E+01  0.1461E+02
     -5.660  0.1971E+01  0.1463E+02
     -5.650  0.1889E+01  0.1465E+02
     -5.640  0.1817E+01  0.1467E+02
     -5.630  0.1755E+01  0.1468E+02
     -5.620  0.1703E+01  0.1470E+02
     -5.610  0.1661E+01  0.1472E+02
     -5.600  0.1630E+01  0.1473E+02
     -5.590  0.1609E+01  0.1475E+02
     -5.580  0.1597E+01  0.1477E+02
     -5.570  0.1595E+01  0.1478E+02
     -5.560  0.1601E+01  0.1480E+02
     -5.550  0.1616E+01  0.1481E+02
     -5.540  0.1638E+01  0.1483E+02
     -5.530  0.1667E+01  0.1485E+02
     -5.520  0.1701E+01  0.1487E+02
     -5.510  0.1741E+01  0.1488E+02
     -5.500  0.1785E+01  0.1490E+02
     -5.490  0.1832E+01  0.1492E+02
     -5.480  0.1881E+01  0.1494E+02
     -5.470  0.1932E+01  0.1496E+02
     -5.460  0.1982E+01  0.1498E+02
     -5.450  0.2032E+01  0.1500E+02
     -5.440  0.2081E+01  0.1502E+02
     -5.430  0.2128E+01  0.1504E+02
     -5.420  0.2172E+01  0.1506E+02
     -5.410  0.2212E+01  0.1508E+02
     -5.400  0.2248E+01  0.1511E+02
     -5.390  0.2281E+01  0.1513E+02
     -5.380  0.2308E+01  0.1515E+02
     -5.370  0.2332E+01  0.1517E+02
     -5.360  0.2350E+01  0.1520E+02
     -5.350  0.2364E+01  0.1522E+02
     -5.340  0.2374E+01  0.1525E+02
     -5.330  0.2380E+01  0.1527E+02
     -5.320  0.2382E+01  0.1529E+02
     -5.310  0.2382E+01  0.1532E+02
     -5.300  0.2378E+01  0.1534E+02
     -5.290  0.2373E+01  0.1536E+02
     -5.280  0.2367E+01  0.1539E+02
     -5.270  0.2360E+01  0.1541E+02
     -5.260  0.2353E+01  0.1544E+02
     -5.250  0.2347E+01  0.1546E+02
     -5.240  0.2342E+01  0.1548E+02
     -5.230  0.2339E+01  0.1551E+02
     -5.220  0.2338E+01  0.1553E+02
     -5.210  0.2339E+01  0.1555E+02
     -5.200  0.2344E+01  0.1558E+02
     -5.190  0.2352E+01  0.1560E+02
     -5.180  0.2363E+01  0.1562E+02
     -5.170  0.2377E+01  0.1565E+02
     -5.160  0.2395E+01  0.1567E+02
     -5.150  0.2417E+01  0.1569E+02
     -5.140  0.2441E+01  0.1572E+02
     -5.130  0.2468E+01  0.1574E+02
     -5.120  0.2497E+01  0.1577E+02
     -5.110  0.2529E+01  0.1579E+02
     -5.100  0.2562E+01  0.1582E+02
     -5.090  0.2596E+01  0.1585E+02
     -5.080  0.2630E+01  0.1587E+02
     -5.070  0.2665E+01  0.1590E+02
     -5.060  0.2698E+01  0.1593E+02
     -5.050  0.2731E+01  0.1595E+02
     -5.040  0.2762E+01  0.1598E+02
     -5.030  0.2791E+01  0.1601E+02
     -5.020  0.2818E+01  0.1604E+02
     -5.010  0.2841E+01  0.1606E+02
     -5.000  0.2861E+01  0.1609E+02
     -4.990  0.2878E+01  0.1612E+02
     -4.980  0.2892E+01  0.1615E+02
     -4.970  0.2901E+01  0.1618E+02
     -4.960  0.2907E+01  0.1621E+02
     -4.950  0.2909E+01  0.1624E+02
     -4.940  0.2908E+01  0.1627E+02
     -4.930  0.2903E+01  0.1630E+02
     -4.920  0.2896E+01  0.1633E+02
     -4.910  0.2885E+01  0.1635E+02
     -4.900  0.2873E+01  0.1638E+02
     -4.890  0.2859E+01  0.1641E+02
     -4.880  0.2843E+01  0.1644E+02
     -4.870  0.2826E+01  0.1647E+02
     -4.860  0.2810E+01  0.1650E+02
     -4.850  0.2793E+01  0.1652E+02
     -4.840  0.2777E+01  0.1655E+02
     -4.830  0.2762E+01  0.1658E+02
     -4.820  0.2749E+01  0.1661E+02
     -4.810  0.2737E+01  0.1663E+02
     -4.800  0.2727E+01  0.1666E+02
     -4.790  0.2719E+01  0.1669E+02
     -4.780  0.2714E+01  0.1672E+02
     -4.770  0.2711E+01  0.1674E+02
     -4.760  0.2710E+01  0.1677E+02
     -4.750  0.2710E+01  0.1680E+02
     -4.740  0.2712E+01  0.1682E+02
     -4.730  0.2715E+01  0.1685E+02
     -4.720  0.2719E+01  0.1688E+02
     -4.710  0.2723E+01  0.1691E+02
     -4.700  0.2725E+01  0.1693E+02
     -4.690  0.2727E+01  0.1696E+02
     -4.680  0.2727E+01  0.1699E+02
     -4.670  0.2724E+01  0.1702E+02
     -4.660  0.2717E+01  0.1704E+02
     -4.650  0.2707E+01  0.1707E+02
     -4.640  0.2693E+01  0.1710E+02
     -4.630  0.2673E+01  0.1712E+02
     -4.620  0.2648E+01  0.1715E+02
     -4.610  0.2618E+01  0.1718E+02
     -4.600  0.2582E+01  0.1720E+02
     -4.590  0.2541E+01  0.1723E+02
     -4.580  0.2494E+01  0.1725E+02
     -4.570  0.2442E+01  0.1728E+02
     -4.560  0.2386E+01  0.1730E+02
     -4.550  0.2325E+01  0.1732E+02
     -4.540  0.2261E+01  0.1735E+02
     -4.530  0.2193E+01  0.1737E+02
     -4.520  0.2124E+01  0.1739E+02
     -4.510  0.2054E+01  0.1741E+02
     -4.500  0.1983E+01  0.1743E+02
     -4.490  0.1912E+01  0.1745E+02
     -4.480  0.1843E+01  0.1747E+02
     -4.470  0.1776E+01  0.1749E+02
     -4.460  0.1711E+01  0.1750E+02
     -4.450  0.1650E+01  0.1752E+02
     -4.440  0.1594E+01  0.1753E+02
     -4.430  0.1541E+01  0.1755E+02
     -4.420  0.1494E+01  0.1756E+02
     -4.410  0.1452E+01  0.1758E+02
     -4.400  0.1414E+01  0.1759E+02
     -4.390  0.1382E+01  0.1761E+02
     -4.380  0.1355E+01  0.1762E+02
     -4.370  0.1332E+01  0.1763E+02
     -4.360  0.1313E+01  0.1765E+02
     -4.350  0.1298E+01  0.1766E+02
     -4.340  0.1287E+01  0.1767E+02
     -4.330  0.1277E+01  0.1769E+02
     -4.320  0.1270E+01  0.1770E+02
     -4.310  0.1264E+01  0.1771E+02
     -4.300  0.1258E+01  0.1772E+02
     -4.290  0.1253E+01  0.1774E+02
     -4.280  0.1246E+01  0.1775E+02
     -4.270  0.1238E+01  0.1776E+02
     -4.260  0.1228E+01  0.1777E+02
     -4.250  0.1216E+01  0.1779E+02
     -4.240  0.1201E+01  0.1780E+02
     -4.230  0.1184E+01  0.1781E+02
     -4.220  0.1163E+01  0.1782E+02
     -4.210  0.1138E+01  0.1783E+02
     -4.200  0.1111E+01  0.1784E+02
     -4.190  0.1080E+01  0.1785E+02
     -4.180  0.1046E+01  0.1787E+02
     -4.170  0.1010E+01  0.1788E+02
     -4.160  0.9705E+00  0.1788E+02
     -4.150  0.9290E+00  0.1789E+02
     -4.140  0.8857E+00  0.1790E+02
     -4.130  0.8408E+00  0.1791E+02
     -4.120  0.7949E+00  0.1792E+02
     -4.110  0.7482E+00  0.1793E+02
     -4.100  0.7013E+00  0.1793E+02
     -4.090  0.6545E+00  0.1794E+02
     -4.080  0.6083E+00  0.1795E+02
     -4.070  0.5628E+00  0.1795E+02
     -4.060  0.5186E+00  0.1796E+02
     -4.050  0.4757E+00  0.1796E+02
     -4.040  0.4346E+00  0.1797E+02
     -4.030  0.3953E+00  0.1797E+02
     -4.020  0.3581E+00  0.1797E+02
     -4.010  0.3229E+00  0.1798E+02
     -4.000  0.2901E+00  0.1798E+02
     -3.990  0.2594E+00  0.1798E+02
     -3.980  0.2311E+00  0.1798E+02
     -3.970  0.2050E+00  0.1799E+02
     -3.960  0.1811E+00  0.1799E+02
     -3.950  0.1593E+00  0.1799E+02
     -3.940  0.1396E+00  0.1799E+02
     -3.930  0.1218E+00  0.1799E+02
     -3.920  0.1059E+00  0.1799E+02
     -3.910  0.9167E-01  0.1799E+02
     -3.900  0.7905E-01  0.1800E+02
     -3.890  0.6790E-01  0.1800E+02
     -3.880  0.5809E-01  0.1800E+02
     -3.870  0.4951E-01  0.1800E+02
     -3.860  0.4203E-01  0.1800E+02
     -3.850  0.3554E-01  0.1800E+02
     -3.840  0.2993E-01  0.1800E+02
     -3.830  0.2512E-01  0.1800E+02
     -3.820  0.2099E-01  0.1800E+02
     -3.810  0.1748E-01  0.1800E+02
     -3.800  0.1450E-01  0.1800E+02
     -3.790  0.1198E-01  0.1800E+02
     -3.780  0.9858E-02  0.1800E+02
     -3.770  0.8082E-02  0.1800E+02
     -3.760  0.6600E-02  0.1800E+02
     -3.750  0.5369E-02  0.1800E+02