    3    3    1    1
  0.1083567E+03  0.3190316E-09  0.3190316E-09  0.3687900E-08  0.5000000E-15
  1.000000000000000E-004
  CAR 
 unknown system                          
     18     10     14
 
  0.0000000E+00  0.0000000E+00  0.0000000E+00  0.1562500E-01
    1      -18.153124   1.000000
    2      -16.944729   1.000000
    3       -9.662358   1.000000
    4       -6.701003   1.000000
    5       -6.700742   1.000000
    6       -5.840951   1.000000
    7       -5.593408   1.000000
    8       -5.592943   1.000000
    9       -4.118577   1.000000
   10       -1.344487   0.000000
   11       -1.343706   0.000000
   12       -1.121880   0.000000
   13       -1.121191   0.000000
   14        1.288292   0.000000
 
  0.1250000E+00  0.0000000E+00  0.0000000E+00  0.9375000E-01
    1      -17.939061   1.000000
    2      -16.842309   1.000000
    3       -9.418083   1.000000
    4       -7.165255   1.000000
    5       -6.648307   1.000000
    6       -6.466620   1.000000
    7       -5.930072   1.000000
    8       -5.162493   1.000000
    9       -4.257429   1.000000
   10       -1.627216   0.000000
   11       -1.560662   0.000000
   12       -1.359249   0.000000
   13       -0.990329   0.000000
   14        1.717613   0.000000
 
  0.2500000E+00  0.0000000E+00  0.0000000E+00  0.9375000E-01
    1      -17.370516   1.000000
    2      -16.573393   1.000000
    3       -9.052060   1.000000
    4       -7.893523   1.000000
    5       -7.629779   1.000000
    6       -6.566450   1.000000
    7       -5.880819   1.000000
    8       -5.414556   1.000000
    9       -4.826027   1.000000
   10       -1.951403   0.000000
   11       -1.776277   0.000000
   12       -1.233199   0.000000
   13       -0.375240   0.000000
   14        2.478006   0.000000
 
  0.3750000E+00 -0.2775558E-16  0.0000000E+00  0.9375000E-01
    1      -16.695590   1.000000
    2      -16.264828   1.000000
    3       -9.491310   1.000000
    4       -8.498699   1.000000
    5       -8.024820   1.000000
    6       -7.065005   1.000000
    7       -5.823502   1.000000
    8       -5.290763   1.000000
    9       -5.020177   1.000000
   10       -1.958885   0.000000
   11       -1.679033   0.000000
   12       -0.514468   0.000000
   13        0.017479   0.000000
   14        3.041663   0.000000
 
  0.5000000E+00  0.0000000E+00  0.0000000E+00  0.4687500E-01
    1      -16.367298   1.000000
    2      -16.121492   1.000000
    3       -9.824114   1.000000
    4       -8.864833   1.000000
    5       -8.150704   1.000000
    6       -7.245880   1.000000
    7       -5.962046   1.000000
    8       -5.063765   1.000000
    9       -4.738840   1.000000
   10       -1.937274   0.000000
   11       -1.422518   0.000000
   12       -0.214498   0.000000
   13        0.132927   0.000000
   14        2.087328   0.000000
 
  0.1250000E+00  0.1250000E+00  0.0000000E+00  0.9375000E-01
    1      -17.546392   1.000000
    2      -16.655211   1.000000
    3       -9.070663   1.000000
    4       -7.730704   1.000000
    5       -7.211103   1.000000
    6       -6.744360   1.000000
    7       -6.128187   1.000000
    8       -5.027786   1.000000
    9       -4.630259   1.000000
   10       -2.026556   0.000000
   11       -1.648985   0.000000
   12       -1.636960   0.000000
   13       -0.396373   0.000000
   14        2.251957   0.000000
 
  0.2500000E+00  0.1250000E+00  0.0000000E+00  0.1875000E+00
    1      -16.913013   1.000000
    2      -16.356568   1.000000
    3       -9.134856   1.000000
    4       -8.157174   1.000000
    5       -7.893880   1.000000
    6       -7.249812   1.000000
    7       -6.029226   1.000000
    8       -5.390735   1.000000
    9       -4.914035   1.000000
   10       -2.110256   0.000000
   11       -1.663519   0.000000
   12       -1.166840   0.000000
   13        0.109192   0.000000
   14        3.230732   0.000000
 
  0.3750000E+00  0.1250000E+00  0.0000000E+00  0.1875000E+00
    1      -16.382587   1.000000
    2      -16.112595   1.000000
    3       -9.536656   1.000000
    4       -8.920701   1.000000
    5       -8.022611   1.000000
    6       -7.267110   1.000000
    7       -6.014034   1.000000
    8       -5.871646   1.000000
    9       -4.587222   1.000000
   10       -1.918201   0.000000
   11       -1.408080   0.000000
   12       -0.542685   0.000000
   13        0.143352   0.000000
   14        2.612998   0.000000
 
  0.2500000E+00  0.2500000E+00  0.0000000E+00  0.9375000E-01
    1      -16.397599   1.000000
    2      -16.103710   1.000000
    3       -9.176063   1.000000
    4       -8.970811   1.000000
    5       -7.696522   1.000000
    6       -7.315742   1.000000
    7       -6.996407   1.000000
    8       -5.739025   1.000000
    9       -4.616993   1.000000
   10       -1.968981   0.000000
   11       -1.357445   0.000000
   12       -1.040903   0.000000
   13        0.427270   0.000000
   14        3.442736   0.000000
 
  0.3750000E+00  0.2500000E+00  0.0000000E+00  0.9375000E-01
    1      -16.162666   1.000000
    2      -15.984660   1.000000
    3       -9.355476   1.000000
    4       -9.006859   1.000000
    5       -7.980038   1.000000
    6       -7.318007   1.000000
    7       -7.089701   1.000000
    8       -6.124399   1.000000
    9       -4.249770   1.000000
   10       -2.295427   0.000000
   11       -0.980228   0.000000
   12       -0.808214   0.000000
   13        0.570512   0.000000
   14        2.856233   0.000000
