unknown system                          
   1.00000000000000     
     3.190316    0.000000    0.000000
    -1.595158    2.762894    0.000000
     0.000000    0.000000   36.879004
   Mo   S 
     1     2
Direct
  0.333333  0.666667  0.100864
  0.666667  0.333333  0.058431
  0.666666  0.333333  0.143297
 
   12   12  144
 0.22017E-02 0.11650E-01 0.88667     0.51010E-03 0.98626     0.12432E-01 0.41884E-02 0.24451E-02 0.87281E-02 0.36868E-03
 0.13164E-01 0.63895E-02 0.32809E-02 0.14624E-02 0.13431E-02 0.22003E-02 0.16398E-01 0.73895E-02 0.35689E-01 0.41521E-02
 0.10872     0.26987E-02 0.19978E-02 0.31320E-02 0.61063E-03 0.24705E-02 0.22107E-02 0.15067E-02 0.22994E-01 0.93684E-02
 0.10833E-01 0.63622E-02 0.27351E-01 0.10852E-01 0.46889E-01 0.80046E-02 0.97562E-03 0.13809E-03 0.94347E-03 0.34016E-02
 0.35239E-02 0.19097E-02 0.53968E-02 0.53937E-02 0.11362E-01 0.98463     0.23477E-01 0.12167E-02 0.17058E-01 0.70691E-02
 0.14031E-02 0.54477E-03 0.30216E-01 0.10054E-01 0.25280E-01 0.12750E-01 0.84468E-01 0.18737E-01 0.29122E-01 0.34979E-01
 0.11153E-02 0.94950E-03 0.85473E-04 0.90230E-04 0.29943E-03 0.16083E-01 0.14111E-01 0.95899     0.20869E-01 0.37652E-02
 0.61544E-02 0.68693E-02 0.29073E-01 0.17689E-02 0.99995E-03 0.54204E-04 0.14640E-02 0.10901E-01 0.49161E-01 0.43099E-01
 0.22713E-01 0.52185E-02 0.18547E-01 0.18548E-01 0.78236E-02 0.23227     0.30323E-03 0.21024E-03 0.38576E-03 0.68947E-03
 0.14190     0.21028E-02 0.11809E-01 0.40995E-02 0.11054E-01 0.34150     0.84285E-02 0.54697     0.14937E-01 0.12046E-03
 0.78809E-02 0.11799E-02 0.32116E-03 0.74560E-03 0.31742     0.15077E-02 0.75100     0.76266     0.80922E-02 0.53955E-03
 0.79835E-01 0.12220     0.70568E-02 0.62274E-04 0.26557E-03 0.70342E-04 0.47482E-02 0.61428E-02 0.94387     0.11962E-02
 0.14572E-02 0.60429E-01 0.60757E-02 0.29712E-03 0.22404E-02 0.10008E-02 0.21258E-03 0.22850E-03 0.41466E-02 0.22627E-03
 0.15419E-01 0.43643     0.28106E-02 0.16868E-02 0.10422E-02 0.11235E-02 0.30632E-02 0.10044E-02 0.10656E-01 0.33159E-03
 0.22395E-01 0.40075E-03 0.54899E-03 0.21879E-02 0.35364E-02 0.79094E-02 0.26728E-01 0.37201E-02 0.19346     0.61914    
 0.29144E-01 0.55879E-01 0.27521E-01 0.26993E-02 0.15765     0.65397E-02 0.48226E-02 0.31819E-02 0.54554E-02 0.66657E-01
 0.63512E-01 0.52114E-01 0.97497     0.33685E-01 0.76271     0.62093E-01 0.11340E-01 0.88254E-02 0.25285E-02 0.33764    
 0.60295E-02 0.97876E-02 0.79654E-01 0.29740     0.68814E-01 0.21744     0.10666     0.68998E-01 0.11285     0.50766    
 0.20962E-01 0.69017E-03 0.58840E-01 0.12605E-01 0.92667E-01 0.19260E-01 0.17420     0.38020E-01 0.69846     0.38658    
 0.74472     0.10769E-01 0.99997     0.74397E-02 0.97563E-01 0.27438E-02 0.52319E-01 0.38665     0.10418     0.78806    
 0.40186     0.74564E-01 0.93756     0.10270     0.99181E-02 0.20659E-01 0.46867E-03 0.11921E-02 0.22147E-02 0.63773    
 0.77244E-01 0.38566     0.78559E-01 0.14536     0.45671E-01 0.19677     0.99775     0.11639E-01 0.36267E-01 0.30242E-03
 0.10652     0.31957E-01 0.11182     0.99260     0.84067     0.41540E-01 0.73533     0.94919E-01 0.44092E-01 0.10304    
 0.20604E-02 0.25859E-02 0.15448E-02 0.41534E-02 0.32591     0.16076E-01 0.60809E-01 0.10101     0.72164E-01 0.54463    
 0.35139E-01 0.10838     0.14609E-01 0.65058E-03 0.54008E-02 0.70551E-01 0.17009E-02 0.15493E-01 0.26791     0.12762E-01
 0.31250     0.34306     0.97777     0.28166E-02 0.10405E-01 0.15960E-01 0.66621E-01 0.36793E-03 0.54754E-02 0.40204E-03
 0.10463     0.49669     0.14532     0.82046E-02 0.49022E-02 0.21016E-01 0.47692E-02 0.12877E-02 0.71835E-02 0.21361E-01
 0.13244E-02 0.43481E-02 0.31850E-02 0.98959E-03 0.13503E-01 0.51034E-01 0.44738E-02 0.30668E-02 0.28782E-02 0.47509E-01
 0.11591E-01 0.77528E-02 0.89645     0.24638E-02 0.80963E-01 0.99713E-02 0.15759E-02 0.38975E-02 0.40405E-02 0.79888E-02
 0.26987E-01 0.17647E-01 0.22295     0.67740     0.14135     0.85184     0.82744E-01 0.13337E-01 0.45960E-01 0.74870E-02
 0.65152E-02 0.53841E-02 0.16149E-01 0.95112     0.18637     0.24216     0.82281     0.20707     0.65884     0.89047    
 0.45784E-01 0.21017E-01 0.82419E-02 0.17900E-01 0.13900E-01 0.43266E-01 0.24221     0.98617     0.40172     0.94814    
 0.46278     0.30883     0.27510     0.48531     0.93087     0.27654E-02 0.59789E-01 0.35591E-01 0.99278     0.14696    
 0.92149     0.38544     0.99430     0.76780     0.89852     0.64109E-01 0.41290     0.15608E-01 0.14484E-01 0.97138E-02
 0.11706     0.94442     0.46101     0.99786     0.92431     0.54051     0.95335     0.29883     0.60383E-01 0.97177    
 0.20652E-02 0.53541E-01 0.11232E-01 0.75920     0.32701     0.76563     0.55345     0.80872     0.34926     0.99502    
 0.59618     0.45815E-01 0.10904     0.12445E-02 0.66983E-01 0.74880E-01 0.27527     0.83365     0.96720     0.33140    
 0.96983     0.37029     0.16385     0.12961     0.74992E-02 0.13936     0.28442E-02 0.11505E-01 0.20369     0.82672E-01
 0.23911     0.91109     0.32513     0.56203     0.10359     0.90942E-01 0.17414E-01 0.17967E-02 0.27518E-02 0.13658E-01
 0.58203E-02 0.78457     0.25395     0.72287E-01 0.38258     0.38247     0.18764     0.10097E-01 0.11314E-01 0.81403E-02
 0.77673E-02 0.12744E-02 0.70816E-01 0.18494E-02 0.38105E-01 0.27837     0.16704     0.38209E-01 0.12656E-01 0.15401E-01
 0.73220E-02 0.42076E-02 0.13257E-01 0.24512     0.50779E-02 0.79774     0.57063E-02 0.34847E-02 0.20919E-01 0.45468E-01
 0.63061E-02 0.54622E-02 0.68360E-02 0.17745     0.33674E-01 0.35899E-01 0.30050     0.12183E-01 0.40438E-01 0.22068    
 0.37913E-02 0.58767E-02 0.59917E-02 0.11348E-01 0.36807E-01 0.54412E-01 0.30722     0.57607     0.38552     0.81105    
 0.18754     0.43925E-01 0.47658E-01 0.11079E-01 0.10264E-01 0.92692E-02 0.33189E-01 0.41835     0.38176     0.53446    
 0.78004     0.54037     0.71203     0.79935     0.12121     0.37475E-01 0.19466E-01 0.19479E-01 0.26342E-01 0.12166    
 0.47171     0.83535     0.69984     0.92131     0.71371     0.61283     0.48479     0.34355     0.33512     0.84210E-02
 0.41234E-01 0.75891E-01 0.74156     0.48582     0.92659     0.71343     0.90594     0.81148     0.80654     0.23609    
 0.39713     0.31222E-01 0.20043E-01 0.26064E-01 0.22307     0.78459     0.71681     0.90208     0.85784     0.76276    
 0.85876     0.54679     0.22879     0.32281     0.70695E-02 0.25076     0.39419E-01 0.63436     0.61912     0.80973    
 0.76715     0.95042     0.68366     0.87380     0.60417     0.12546     0.61815E-01 0.45494E-02 0.53739E-01 0.15095    
 0.48465     0.79163     0.86123     0.67689     0.85794     0.64757     0.37193     0.19849     0.21730E-01 0.30901E-01
 0.72980E-02 0.28122E-01 0.24708     0.26520     0.51591     0.90773     0.62597     0.66505     0.21989     0.12301    
 0.30476E-01 0.54976E-02 0.58576E-02 0.15746E-01 0.16445E-01 0.36073     0.33335     0.25123     0.53191     0.50123    
 0.15790     0.26373E-01 0.20166E-01 0.14228E-01 0.12434E-01 0.44183E-02 0.32138E-01 0.65457E-02 0.47685E-01 0.19253    
 0.22692     0.11252     0.25632E-01 0.22920E-01 0.14558E-01 0.11737E-01 0.26976E-01 0.89553E-01 0.15367E-01 0.76601E-01
 0.12488E-01 0.97068E-02 0.33241E-01 0.54320E-01 0.10093E-01 0.10741E-01 0.15194E-01 0.84463E-01 0.75814E-01 0.11070    
 0.26593     0.41507E-01 0.53873E-01 0.58095E-01 0.86192E-02 0.96347E-02 0.10365E-01 0.17399E-01 0.54784E-01 0.12827    
 0.43226     0.63671     0.60057     0.72460     0.34500     0.11043     0.64490E-01 0.17297E-01 0.16490E-01 0.15594E-01
 0.57565E-01 0.39731     0.57034     0.72958     0.83622     0.76335     0.78882     0.72914     0.23850     0.60847E-01
 0.37891E-01 0.25818E-01 0.45676E-01 0.24626     0.64614     0.85416     0.85949     0.92513     0.86035     0.79202    
 0.65113     0.38366     0.29118     0.18907E-01 0.48859E-01 0.14516     0.71179     0.74841     0.92646     0.89720    
 0.93894     0.89827     0.84857     0.47792     0.48401     0.60022E-01 0.29134E-01 0.59087E-01 0.37371     0.80492    
 0.86294     0.93778     0.93660     0.90768     0.89997     0.72582     0.46767     0.28336     0.17595E-01 0.93458E-01
 0.10387     0.67456     0.78874     0.89738     0.90885     0.94925     0.86650     0.86584     0.68091     0.24082    
 0.69740E-01 0.11611E-01 0.67306E-01 0.25193     0.64149     0.84285     0.89920     0.86625     0.89758     0.80136    
 0.56271     0.28822     0.46269E-01 0.29870E-01 0.15037E-01 0.53146E-01 0.32039     0.49087     0.71845     0.87765    
 0.79754     0.76771     0.37861     0.18852     0.50688E-01 0.12700E-01 0.11818E-01 0.22076E-01 0.36166E-01 0.29327    
 0.45102     0.49005     0.66928     0.62450     0.20963     0.57992E-01 0.33402E-01 0.22785E-01 0.19846E-01 0.11221E-01
 0.33537E-01 0.16763E-01 0.75356E-01 0.23774     0.31776     0.23557     0.45766E-01 0.34618E-01 0.24615E-01 0.25020E-01
 0.48234E-01 0.86394E-01 0.35474E-01 0.64179E-01 0.22371E-01 0.20616E-01 0.52645E-01 0.73407E-01 0.16324E-01 0.18320E-01
 0.27945E-01 0.10123     0.14939     0.22980     0.31919     0.10707     0.87314E-01 0.56202E-01 0.15771E-01 0.15836E-01
 0.15784E-01 0.25153E-01 0.84089E-01 0.24008     0.55953     0.71700     0.72595     0.75816     0.50393     0.21530    
 0.94929E-01 0.25147E-01 0.24384E-01 0.23597E-01 0.95191E-01 0.46052     0.68833     0.81880     0.87621     0.85242    
 0.84060     0.75617     0.36501     0.98040E-01 0.65953E-01 0.32764E-01 0.75034E-01 0.37983     0.73691     0.88063    
 0.90841     0.93430     0.90732     0.86102     0.73934     0.46461     0.36892     0.34165E-01 0.65807E-01 0.24364    
 0.75295     0.84568     0.93402     0.93551     0.94759     0.92494     0.88062     0.63868     0.59408     0.11111    
 0.41545E-01 0.11756     0.52284     0.84401     0.90885     0.94702     0.95044     0.93840     0.92097     0.81316    
 0.63726     0.37656     0.35923E-01 0.99420E-01 0.21330     0.74437     0.85967     0.92592     0.93862     0.95046    
 0.91634     0.88882     0.75520     0.38573     0.11189     0.24787E-01 0.11205     0.38597     0.74176     0.88025    
 0.92017     0.91619     0.91934     0.86607     0.69082     0.41463     0.10073     0.47227E-01 0.32425E-01 0.10825    
 0.44153     0.64856     0.81314     0.88944     0.86316     0.82967     0.53116     0.29920     0.93999E-01 0.28920E-01
 0.25803E-01 0.39976E-01 0.76412E-01 0.37791     0.57355     0.64736     0.74812     0.71112     0.30374     0.11367    
 0.55209E-01 0.37558E-01 0.37856E-01 0.26789E-01 0.46671E-01 0.35294E-01 0.12773     0.33351     0.41755     0.36898    
 0.76280E-01 0.51119E-01 0.37622E-01 0.47141E-01 0.91666E-01 0.13860     0.77019E-01 0.82013E-01 0.35399E-01 0.36441E-01
 0.83319E-01 0.10880     0.24264E-01 0.26244E-01 0.45479E-01 0.15203     0.26768     0.38027     0.43295     0.21899    
 0.14701     0.69185E-01 0.23568E-01 0.23685E-01 0.20917E-01 0.34828E-01 0.12484     0.35547     0.65371     0.77645    
 0.79593     0.80152     0.60995     0.32689     0.14016     0.34891E-01 0.33786E-01 0.33526E-01 0.14426     0.52955    
 0.74907     0.85345     0.88995     0.88037     0.86498     0.78549     0.46059     0.14874     0.10425     0.42724E-01
 0.11620     0.48009     0.77956     0.88404     0.91124     0.92556     0.90930     0.87644     0.78104     0.53830    
 0.47861     0.53696E-01 0.98006E-01 0.33950     0.78869     0.86858     0.92247     0.92534     0.93226     0.91721    
 0.88705     0.71308     0.66996     0.19011     0.59249E-01 0.20829     0.61729     0.86686     0.90992     0.93195    
 0.93176     0.92758     0.91590     0.85070     0.73001     0.49582     0.64224E-01 0.13726     0.33764     0.79728    
 0.88294     0.92134     0.92742     0.93319     0.91671     0.89857     0.80951     0.50928     0.18389     0.45986E-01
 0.18768     0.50088     0.80502     0.89358     0.91593     0.91357     0.91612     0.88587     0.76699     0.53140    
 0.18539     0.77174E-01 0.62655E-01 0.19248     0.55480     0.73502     0.85074     0.88983     0.87714     0.85641    
 0.63798     0.41872     0.15997     0.57828E-01 0.48905E-01 0.70068E-01 0.13957     0.49655     0.66020     0.72358    
 0.78554     0.76121     0.40302     0.18943     0.90596E-01 0.62273E-01 0.68541E-01 0.55110E-01 0.71330E-01 0.63660E-01
 0.20518     0.43986     0.49897     0.47240     0.11729     0.76370E-01 0.58424E-01 0.82360E-01 0.15748     0.21936    
 0.14336     0.12289     0.54371E-01 0.58370E-01 0.12675     0.15847     0.34094E-01 0.36328E-01 0.70959E-01 0.22423    
 0.39542     0.51420     0.54184     0.34246     0.23499     0.95830E-01 0.33104E-01 0.33122E-01 0.27453E-01 0.47711E-01
 0.16882     0.43587     0.70121     0.80164     0.82524     0.81662     0.65481     0.42115     0.19328     0.47360E-01
 0.45599E-01 0.47101E-01 0.19294     0.57809     0.76593     0.84895     0.87286     0.86941     0.85869     0.78638    
 0.51267     0.20539     0.15254     0.54916E-01 0.16796     0.53017     0.78811     0.85403     0.86628     0.86837    
 0.86265     0.85131     0.79101     0.57212     0.55650     0.78272E-01 0.13640     0.41831     0.79196     0.84641    
 0.85653     0.82156     0.82975     0.85163     0.85899     0.73616     0.68973     0.29579     0.80176E-01 0.31799    
 0.65393     0.86104     0.86276     0.82960     0.78643     0.82567     0.86667     0.85144     0.77256     0.56918    
 0.11011     0.18250     0.45593     0.81127     0.87071     0.86450     0.82529     0.82907     0.86169     0.88060    
 0.83337     0.58725     0.28106     0.80444E-01 0.28533     0.57675     0.83389     0.87705     0.86746     0.84926    
 0.86986     0.87037     0.79717     0.61561     0.28192     0.13259     0.11265     0.29756     0.61924     0.77220    
 0.84990     0.86050     0.85015     0.84991     0.69045     0.50839     0.24089     0.10833     0.91875E-01 0.12141    
 0.22742     0.58572     0.68885     0.74824     0.79051     0.77472     0.47324     0.26346     0.14203     0.10610    
 0.12183     0.10559     0.11172     0.10449     0.30309     0.50902     0.54539     0.53534     0.16059     0.10940    
 0.90599E-01 0.13285     0.23841     0.31183     0.23372     0.18004     0.78006E-01 0.87942E-01 0.17799     0.20949    
 0.47145E-01 0.50679E-01 0.10350     0.29509     0.49090     0.60577     0.61161     0.44690     0.33562     0.12605    
 0.45289E-01 0.45846E-01 0.37316E-01 0.63830E-01 0.20441     0.47750     0.72289     0.81627     0.84218     0.81951    
 0.67718     0.49799     0.23142     0.61635E-01 0.60536E-01 0.63412E-01 0.22876     0.59698     0.76298     0.83276    
 0.84871     0.84988     0.84280     0.76806     0.53669     0.25048     0.20452     0.68089E-01 0.21781     0.54151    
 0.77874     0.80950     0.78596     0.75910     0.78020     0.81023     0.78349     0.56621     0.56948     0.11424    
 0.16076     0.48769     0.77461     0.80722     0.72501     0.54643     0.55443     0.72100     0.81436     0.74353    
 0.68861     0.40113     0.10788     0.40015     0.67464     0.84538     0.78017     0.55438     0.35646     0.55229    
 0.78196     0.84056     0.80189     0.59360     0.18493     0.21953     0.56683     0.81047     0.85046     0.75564    
 0.55204     0.55083     0.75522     0.85486     0.84715     0.64613     0.37465     0.13323     0.37032     0.64363    
 0.85053     0.85275     0.78309     0.72019     0.78855     0.84689     0.81112     0.67968     0.36956     0.21070    
 0.17654     0.40038     0.65583     0.79855     0.83813     0.81592     0.80612     0.83481     0.71451     0.57198    
 0.32608     0.17603     0.15351     0.19130     0.33285     0.62501     0.69074     0.75449     0.77884     0.76916    
 0.51089     0.32417     0.20573     0.16873     0.19331     0.17295     0.16396     0.16634     0.40401     0.52141    
 0.56061     0.56233     0.19520     0.14574     0.13327     0.19476     0.32256     0.40375     0.33435     0.23201    
 0.10669     0.13051     0.22124     0.24322     0.63234E-01 0.69149E-01 0.13869     0.35513     0.55826     0.66759    
 0.66131     0.54121     0.41431     0.14631     0.61225E-01 0.62814E-01 0.51722E-01 0.82326E-01 0.22647     0.48868    
 0.73181     0.82872     0.85452     0.82001     0.69687     0.54360     0.24009     0.77671E-01 0.78995E-01 0.80168E-01
 0.24489     0.58997     0.75996     0.83216     0.85096     0.85569     0.84207     0.75100     0.54616     0.26579    
 0.24059     0.85371E-01 0.24646     0.53016     0.76916     0.79628     0.76636     0.72933     0.75989     0.79940    
 0.77332     0.54252     0.53582     0.16061     0.16989     0.53748     0.75794     0.79718     0.67867     0.45415    
 0.45854     0.67704     0.79857     0.75486     0.69153     0.44040     0.14044     0.40986     0.69666     0.84478    
 0.76005     0.45834     0.23301     0.45889     0.75950     0.84310     0.82579     0.57508     0.24712     0.23114    
 0.61920     0.80865     0.85549     0.72797     0.45896     0.45314     0.73041     0.85404     0.85686     0.67069    
 0.38573     0.17474     0.37510     0.67953     0.86094     0.85333     0.76035     0.67876     0.76693     0.84982    
 0.82021     0.69854     0.39025     0.24450     0.20822     0.41936     0.66022     0.82325     0.84067     0.79994    
 0.79236     0.83715     0.72464     0.59165     0.35614     0.20913     0.18992     0.22692     0.37346     0.60457    
 0.69197     0.76336     0.76702     0.76354     0.52339     0.35583     0.24223     0.20330     0.22632     0.20469    
 0.19290     0.22274     0.44869     0.49549     0.55860     0.55915     0.21630     0.17775     0.16775     0.23027    
 0.35094     0.42772     0.36742     0.24251     0.13670     0.18162     0.23836     0.25343     0.81146E-01 0.90546E-01
 0.16880     0.38882     0.58041     0.68069     0.67562     0.59303     0.42955     0.15810     0.83859E-01 0.82771E-01
 0.74268E-01 0.10492     0.23210     0.44984     0.69326     0.80553     0.83196     0.78607     0.67371     0.51497    
 0.22897     0.99021E-01 0.10222     0.99649E-01 0.24263     0.55569     0.73848     0.82760     0.86024     0.86696    
 0.83734     0.72246     0.52703     0.25557     0.24333     0.10759     0.24629     0.49110     0.74937     0.80755    
 0.80938     0.79227     0.80464     0.81058     0.74932     0.50549     0.46814     0.18210     0.16384     0.52415    
 0.72818     0.80706     0.74939     0.64100     0.64070     0.74990     0.80544     0.74670     0.66229     0.36384    
 0.14579     0.32935     0.67603     0.84182     0.80478     0.64007     0.49274     0.64376     0.80233     0.84019    
 0.80737     0.48267     0.21629     0.19685     0.53686     0.77369     0.86595     0.79376     0.64400     0.63432    
 0.79782     0.85975     0.83271     0.60452     0.30839     0.17519     0.30268     0.61901     0.83593     0.85960    
 0.80304     0.75370     0.80841     0.85932     0.79114     0.61982     0.33659     0.24020     0.21563     0.35034    
 0.58682     0.80941     0.83709     0.80656     0.80143     0.83740     0.68577     0.51126     0.30164     0.21480    
 0.21839     0.23115     0.30863     0.49730     0.66075     0.75310     0.74349     0.74147     0.49053     0.31422    
 0.20618     0.18961     0.22798     0.21084     0.18446     0.20481     0.37515     0.43792     0.53516     0.51912    
 0.22047     0.18435     0.15703     0.19643     0.29655     0.36502     0.30347     0.19642     0.14020     0.19985    
 0.22889     0.24954     0.10262     0.11135     0.17372     0.34747     0.50213     0.59832     0.60269     0.52641    
 0.35050     0.15846     0.11078     0.10528     0.11722     0.14207     0.22252     0.33916     0.54558     0.68216    
 0.71404     0.65407     0.53620     0.39035     0.21309     0.13488     0.13829     0.13218     0.23631     0.49041    
 0.64597     0.75786     0.81913     0.82659     0.77106     0.63512     0.45813     0.24477     0.22418     0.13233    
 0.22879     0.41097     0.68249     0.78284     0.81003     0.80858     0.80871     0.78081     0.67465     0.43943    
 0.35670     0.15395     0.13932     0.41629     0.63463     0.77160     0.77936     0.75494     0.74926     0.78046    
 0.77295     0.66361     0.52790     0.22732     0.11344     0.20674     0.54129     0.78287     0.80728     0.74808    
 0.69572     0.75474     0.80452     0.77475     0.67958     0.33753     0.15478     0.15100     0.36074     0.63982    
 0.82565     0.81346     0.75496     0.74351     0.81837     0.81395     0.71583     0.46758     0.24341     0.16016    
 0.24314     0.47971     0.71618     0.81286     0.80609     0.78522     0.80942     0.81660     0.65798     0.47364    
 0.28745     0.22472     0.20863     0.29303     0.45529     0.68938     0.76702     0.77646     0.76832     0.77887    
 0.53706     0.35372     0.24381     0.20728     0.22000     0.21967     0.24264     0.34099     0.52775     0.66757    
 0.67032     0.65240     0.38510     0.20855     0.15172     0.16892     0.21624     0.20513     0.16815     0.15151    
 0.23405     0.33514     0.47312     0.43631     0.20910     0.15644     0.11425     0.14493     0.24035     0.30626    
 0.23991     0.14608     0.11001     0.16449     0.20940     0.24707     0.13735     0.13055     0.14577     0.23453    
 0.34743     0.45425     0.46602     0.36406     0.22102     0.13925     0.13480     0.14023     0.20422     0.21931    
 0.22192     0.22135     0.33806     0.45216     0.48308     0.42751     0.32847     0.25574     0.21589     0.20548    
 0.20949     0.19664     0.25860     0.41876     0.45471     0.54471     0.63428     0.63654     0.56498     0.46350    
 0.36886     0.26347     0.22100     0.17376     0.22382     0.31660     0.55780     0.65964     0.68617     0.69798    
 0.69389     0.64372     0.53311     0.35894     0.24368     0.13290     0.12888     0.28592     0.44673     0.62220    
 0.69575     0.70328     0.69070     0.69218     0.63539     0.48179     0.32495     0.15431     0.10193     0.14137    
 0.33948     0.58876     0.68399     0.68903     0.67355     0.69961     0.68753     0.56819     0.44337     0.22040    
 0.11152     0.11264     0.22457     0.41384     0.64229     0.70712     0.70004     0.68451     0.71445     0.62033    
 0.48822     0.30886     0.13832     0.82778E-01 0.14021     0.31564     0.48349     0.61812     0.69148     0.69719    
 0.69163     0.62552     0.42514     0.31087     0.15561     0.89860E-01 0.83389E-01 0.15789     0.30274     0.45638    
 0.55037     0.64993     0.62217     0.58386     0.33050     0.22640     0.13943     0.82984E-01 0.78399E-01 0.87338E-01
 0.13761     0.22103     0.32868     0.47801     0.53582     0.46735     0.26350     0.14431     0.11127     0.86946E-01
 0.85737E-01 0.82903E-01 0.87373E-01 0.10933     0.15765     0.22828     0.39293     0.34324     0.20620     0.14183    
 0.10079     0.10637     0.13878     0.16444     0.13526     0.10908     0.10032     0.14176     0.20593     0.27519    
 0.20780     0.16301     0.13075     0.16378     0.22156     0.29770     0.30992     0.23115     0.15073     0.12918    
 0.17033     0.21148     0.33632     0.35016     0.25794     0.18543     0.22937     0.25467     0.25700     0.24327    
 0.21521     0.21356     0.26636     0.32089     0.32568     0.29988     0.35327     0.39509     0.27644     0.29265    
 0.33531     0.32690     0.30642     0.30577     0.33135     0.33786     0.26831     0.25385     0.25659     0.27704    
 0.44542     0.43434     0.39753     0.40973     0.41861     0.41370     0.38759     0.32635     0.20931     0.16683    
 0.17394     0.24101     0.27130     0.39269     0.47356     0.46526     0.45177     0.45482     0.40883     0.31331    
 0.21378     0.15677     0.13100     0.14526     0.23241     0.32215     0.39589     0.45254     0.45630     0.46098    
 0.41342     0.30783     0.24878     0.14457     0.81371E-01 0.82288E-01 0.14264     0.23628     0.34163     0.41308    
 0.46280     0.44630     0.42360     0.31890     0.26211     0.14772     0.43046E-01 0.18951E-01 0.44397E-01 0.14930    
 0.25579     0.32083     0.41534     0.46064     0.41220     0.32463     0.23875     0.14755     0.34161E-01 0.68081E-02
 0.61204E-02 0.34664E-01 0.14540     0.25726     0.29008     0.43501     0.38691     0.32436     0.22272     0.14618    
 0.43621E-01 0.61202E-02 0.31771E-02 0.63931E-02 0.43341E-01 0.14392     0.22126     0.29716     0.41104     0.29123    
 0.22095     0.14833     0.81508E-01 0.19921E-01 0.62160E-02 0.62765E-02 0.20060E-01 0.79298E-01 0.15845     0.19793    
 0.35552     0.30969     0.24373     0.18684     0.12834     0.78149E-01 0.44270E-01 0.35718E-01 0.41834E-01 0.80840E-01
 0.13057     0.18070     0.24445     0.37028     0.32805     0.22492     0.17429     0.16571     0.14195     0.14256    
 0.14926     0.14858     0.15357     0.16806     0.24309     0.32451     0.44044     0.45771     0.30065     0.21791    
 0.21580     0.16665     0.14782     0.16511     0.19449     0.24001     0.33805     0.42228     0.42161     0.39430    
 0.49857     0.40799     0.20383     0.18020     0.16913     0.15997     0.18189     0.24642     0.35768     0.43243    
 0.34051     0.32926     0.29893     0.31847     0.40898     0.25122     0.18316     0.18028     0.19913     0.24987    
 0.31598     0.35573     0.23805     0.22902     0.25175     0.25565     0.20173     0.25036     0.25275     0.20700    
 0.20608     0.23215     0.24895     0.24830     0.19411     0.19430     0.17717     0.18627     0.21766     0.18185    
 0.18283     0.20994     0.20489     0.20860     0.19748     0.18257     0.16570     0.12093     0.78781E-01 0.78248E-01
 0.11650     0.16421     0.17162     0.17504     0.21039     0.20406     0.18214     0.15903     0.15101     0.79092E-01
 0.17354E-01 0.60565E-02 0.18462E-01 0.78491E-01 0.14625     0.16409     0.19405     0.23938     0.19232     0.16342    
 0.16160     0.78287E-01 0.78012E-02 0.21186E-03 0.16422E-03 0.78955E-02 0.78296E-01 0.16938     0.17245     0.26705    
 0.23444     0.19010     0.20736     0.12016     0.17870E-01 0.16786E-03 0.69420E-05 0.17119E-03 0.17915E-01 0.11926    
 0.20636     0.22198     0.36476     0.21968     0.23616     0.18975     0.78341E-01 0.63222E-02 0.16173E-03 0.19869E-03
 0.63306E-02 0.76579E-01 0.19275     0.23501     0.36137     0.35899     0.30768     0.25686     0.17307     0.76221E-01
 0.18483E-01 0.78891E-02 0.17046E-01 0.78325E-01 0.17939     0.24783     0.30661     0.48324     0.43759     0.28598    
 0.25472     0.19955     0.11647     0.77350E-01 0.80078E-01 0.12198     0.19212     0.23129     0.32075     0.41142    
 0.44423     0.44663     0.28737     0.24069     0.21685     0.15942     0.14611     0.16525     0.19388     0.24054    
 0.33923     0.42964     0.42076     0.41188     0.52930     0.35425     0.20227     0.18931     0.16418     0.15435    
 0.17963     0.24717     0.35833     0.43436     0.34345     0.32308     0.28895     0.37007     0.40395     0.22633    
 0.18103     0.17899     0.19319     0.24473     0.31418     0.35950     0.24002     0.23372     0.25995     0.23286    
 0.20422     0.26865     0.24353     0.19609     0.20249     0.22690     0.24606     0.24524     0.19444     0.19411    
 0.17718     0.19633     0.21546     0.16815     0.18167     0.20879     0.19919     0.20163     0.19303     0.18021    
 0.16293     0.12173     0.79422E-01 0.76665E-01 0.11591     0.16931     0.16440     0.16848     0.20327     0.20219    
 0.17493     0.15662     0.14822     0.77795E-01 0.16712E-01 0.60940E-02 0.18157E-01 0.75732E-01 0.14419     0.16480    
 0.18580     0.23602     0.18543     0.16126     0.16295     0.76372E-01 0.76532E-02 0.17852E-03 0.14348E-03 0.76605E-02
 0.77589E-01 0.16274     0.17657     0.25118     0.24242     0.18035     0.20727     0.11900     0.17525E-01 0.15059E-03
 0.59687E-05 0.14926E-03 0.17551E-01 0.11953     0.20823     0.21644     0.36811     0.21867     0.22320     0.19840    
 0.77830E-01 0.61103E-02 0.14491E-03 0.18971E-03 0.60432E-02 0.77532E-01 0.18901     0.25253     0.33029     0.39470    
 0.32486     0.24856     0.17438     0.77953E-01 0.18063E-01 0.73395E-02 0.16989E-01 0.78424E-01 0.18228     0.24482    
 0.31975     0.46719     0.44392     0.29243     0.26701     0.19143     0.11648     0.77653E-01 0.78391E-01 0.12048    
 0.19455     0.23330     0.32647     0.40542     0.34542     0.33070     0.23370     0.23012     0.22751     0.22871    
 0.25138     0.24439     0.21105     0.20988     0.27009     0.33458     0.32542     0.33335     0.40284     0.29311    
 0.27291     0.32303     0.31653     0.30321     0.29853     0.30774     0.32820     0.34063     0.27093     0.24484    
 0.23484     0.37686     0.42890     0.36330     0.39163     0.41190     0.39858     0.39784     0.38124     0.33299    
 0.21270     0.17294     0.18952     0.19115     0.27781     0.44081     0.45234     0.42607     0.44443     0.44162    
 0.40253     0.30056     0.21247     0.15489     0.13044     0.16403     0.22481     0.27338     0.39373     0.45317    
 0.43888     0.43678     0.40221     0.29823     0.23759     0.14609     0.81176E-01 0.77496E-01 0.13962     0.25461    
 0.31371     0.39016     0.43888     0.44724     0.39582     0.31233     0.25215     0.14197     0.39404E-01 0.18567E-01
 0.41755E-01 0.13687     0.24854     0.32629     0.38932     0.44940     0.39061     0.31761     0.24308     0.13899    
 0.32682E-01 0.52977E-02 0.52304E-02 0.32472E-01 0.14278     0.23238     0.30383     0.39485     0.41014     0.29071    
 0.22099     0.14174     0.40832E-01 0.53591E-02 0.25143E-02 0.51483E-02 0.41081E-01 0.14373     0.22272     0.27814    
 0.41738     0.28402     0.19272     0.16379     0.79272E-01 0.18064E-01 0.51466E-02 0.57463E-02 0.17830E-01 0.80064E-01
 0.14973     0.23209     0.29310     0.37157     0.27372     0.17254     0.12997     0.81174E-01 0.41860E-01 0.30753E-01
 0.40557E-01 0.80515E-01 0.13506     0.17253     0.26993     0.34414     0.33951     0.23788     0.19360     0.14827    
 0.14042     0.14442     0.14232     0.14223     0.15690     0.17297     0.25137     0.31555     0.21223     0.20709    