perl: warning: Setting locale failed.
perl: warning: Please check that your locale settings:
	LANGUAGE = (unset),
	LC_ALL = (unset),
	LC_CTYPE = "UTF-8",
	LANG = "en_US.iso885915"
    are supported and installed on your system.
perl: warning: Falling back to the standard locale ("C").
Starting job 28532614 ("jobname") on c16-5 at Fri Nov 8 11:47:43 CET 2019
 running on    4 total cores
 distrk:  each k-point on    4 cores,    1 groups
 distr:  one band on    2 cores,    2 groups
 using from now: INCAR     
 vasp.5.4.4.18Apr17-6-g9f103f2a35 (build Jun 30 2017 11:15:00) complex          
  
 POSCAR found type information on POSCAR  Mo S 
 POSCAR found :  2 types and       3 ions
 scaLAPACK will be used

 ----------------------------------------------------------------------------- 
|                                                                             |
|  ADVICE TO THIS USER RUNNING 'VASP/VAMP'   (HEAR YOUR MASTER'S VOICE ...):  |
|                                                                             |
|      You have a (more or less) 'small supercell' and for smaller cells      |
|      it is recommended  to use the reciprocal-space projection scheme!      |
|      The real space optimization is not  efficient for small cells and it   |
|      is also less accurate ...                                              |
|      Therefore set LREAL=.FALSE. in the  INCAR file                         |
|                                                                             |
 ----------------------------------------------------------------------------- 

 LDA part: xc-table for Pade appr. of Perdew
 POSCAR, INCAR and KPOINTS ok, starting setup
 FFT: planning ...
 WAVECAR not read
 entering main loop
       N       E                     dE             d eps       ncg     rms          rms(c)
DAV:   1     0.899959709468E+02    0.89996E+02   -0.43271E+03   336   0.494E+02
DAV:   2    -0.122367690341E+02   -0.10223E+03   -0.93730E+02   472   0.132E+02
DAV:   3    -0.231563035774E+02   -0.10920E+02   -0.10814E+02   388   0.550E+01
DAV:   4    -0.233661510856E+02   -0.20985E+00   -0.20867E+00   396   0.905E+00
DAV:   5    -0.233701709701E+02   -0.40199E-02   -0.40132E-02   334   0.113E+00    0.691E+00
RMM:   6    -0.222101690955E+02    0.11600E+01   -0.54285E+00   293   0.116E+01    0.263E+00
RMM:   7    -0.218284924359E+02    0.38168E+00   -0.57884E-01   291   0.333E+00    0.155E+00
RMM:   8    -0.217675865099E+02    0.60906E-01   -0.23292E-01   307   0.245E+00    0.348E-01
RMM:   9    -0.217629317521E+02    0.46548E-02   -0.82124E-03   338   0.547E-01    0.922E-02
RMM:  10    -0.217622458249E+02    0.68593E-03   -0.14904E-03   347   0.204E-01    0.430E-02
RMM:  11    -0.217621546161E+02    0.91209E-04   -0.15865E-03   319   0.175E-01    0.495E-02
RMM:  12    -0.217620558993E+02    0.98717E-04   -0.48233E-04   312   0.117E-01    0.153E-02
RMM:  13    -0.217624489870E+02   -0.39309E-03   -0.14340E-04   310   0.605E-02    0.178E-02
RMM:  14    -0.217625250673E+02   -0.76080E-04   -0.25447E-05   331   0.246E-02    0.500E-03
RMM:  15    -0.217626733533E+02   -0.14829E-03   -0.17849E-05   290   0.156E-02    0.361E-03
RMM:  16    -0.217627184208E+02   -0.45067E-04   -0.30172E-06   243   0.700E-03    0.257E-03
RMM:  17    -0.217627615084E+02   -0.43088E-04   -0.23189E-06   206   0.705E-03    0.208E-03
RMM:  18    -0.217627651435E+02   -0.36350E-05   -0.21948E-07   159   0.282E-03    0.174E-03
RMM:  19    -0.217627724425E+02   -0.72991E-05   -0.55644E-07   190   0.351E-03    0.171E-03
RMM:  20    -0.217627735070E+02   -0.10644E-05   -0.10040E-07   140   0.195E-03    0.162E-03
RMM:  21    -0.217627738590E+02   -0.35199E-06   -0.12086E-08    78   0.880E-04
   1 F= -.22353497E+02 E0= -.22353497E+02  d E =-.639577E-10

Currently Loaded Modulefiles:
  1) Anaconda3/5.1.0       3) vesta/3.3.8           5) intel/2016.1
  2) gnuplot/5.0.4         4) imagemagick/6.7.9-0   6) vasp/5.4.1.Feb16

Job script resource usage:
       JobID  MaxVMSize     MaxRSS 
------------ ---------- ---------- 
28532614.ba+    216888K      1948K 

Job step resource usage:
       JobID    JobName  AllocCPUS  MaxVMSize     MaxRSS    Elapsed ExitCode 
------------ ---------- ---------- ---------- ---------- ---------- -------- 
28532614        jobname          4                         00:00:09      0:0 
28532614.0    pmi_proxy          1    279832K       518K   00:00:07      0:0 

Job 28532614 ("jobname") completed on c16-5 at Fri Nov 8 11:47:50 CET 2019
