<?xml version="1.0" encoding="ISO-8859-1"?>
<modeling>
 <generator>
  <i name="program" type="string">vasp </i>
  <i name="version" type="string">5.4.4.18Apr17-6-g9f103f2a35  </i>
  <i name="subversion" type="string">(build Jun 30 2017 11:15:00) complex            parallel </i>
  <i name="platform" type="string">STALLO_VASP_5.4.4 </i>
  <i name="date" type="string">2019 11 08 </i>
  <i name="time" type="string">11:47:43 </i>
 </generator>
 <incar>
  <i type="string" name="PREC">normal    ! low/normal/accurate</i>
  <i type="string" name="ALGO"> Fast      ! Algorithm for electronic re</i>
  <i type="int" name="ISPIN">     1</i>
  <i type="int" name="NELMIN">     4</i>
  <i name="EDIFF">      0.00000100</i>
  <i type="int" name="NSW">     0</i>
  <i name="ENCUT">    250.00000000</i>
  <i type="int" name="NEDOS">  2401</i>
  <i type="string" name="LREAL"> Auto      ! Projection in reciprocal sp</i>
  <i name="EMIN">    -12.00000000</i>
  <i name="EMAX">     12.00000000</i>
  <i type="int" name="ISMEAR">     0</i>
  <i name="SIGMA">      0.20000000</i>
  <i type="logical" name="LWAVE"> F  </i>
  <i type="int" name="LORBIT">    11</i>
  <i type="logical" name="LELF"> T  </i>
  <v type="int" name="KPOINT_BSE">    -1     0     0     0</v>
 </incar>
 <structure name="primitive_cell" >
  <crystal>
   <varray name="basis" >
    <v>       3.19031573       0.00000000       0.00000000 </v>
    <v>      -1.59515786       2.76289447       0.00000000 </v>
    <v>       0.00000000       0.00000000      36.87900430 </v>
   </varray>
   <i name="volume">    325.07019297 </i>
   <varray name="rec_basis" >
    <v>       0.31344860       0.18096963       0.00000000 </v>
    <v>       0.00000000       0.36193927       0.00000000 </v>
    <v>       0.00000000       0.00000000       0.02711570 </v>
   </varray>
  </crystal>
  <varray name="positions" >
   <v>       0.33333300      -0.33333300       0.10086365 </v>
   <v>      -0.33333400       0.33333300       0.14329659 </v>
   <v>      -0.33333300       0.33333300       0.05843072 </v>
  </varray>
 </structure>
 <varray name="primitive_index" >
  <v type="int" >        1 </v>
  <v type="int" >        3 </v>
  <v type="int" >        2 </v>
 </varray>
 <kpoints>
  <generation param="Gamma">
   <v type="int" name="divisions">       8        8        1 </v>
   <v name="usershift">      0.00000000       0.00000000       0.00000000 </v>
   <v name="genvec1">      0.12500000       0.00000000       0.00000000 </v>
   <v name="genvec2">      0.00000000       0.12500000       0.00000000 </v>
   <v name="genvec3">      0.00000000       0.00000000       1.00000000 </v>
   <v name="shift">      0.00000000       0.00000000       0.00000000 </v>
  </generation>
  <varray name="kpointlist" >
   <v>       0.00000000       0.00000000       0.00000000 </v>
   <v>       0.12500000       0.00000000       0.00000000 </v>
   <v>       0.25000000       0.00000000       0.00000000 </v>
   <v>       0.37500000      -0.00000000       0.00000000 </v>
   <v>       0.50000000       0.00000000       0.00000000 </v>
   <v>       0.12500000       0.12500000       0.00000000 </v>
   <v>       0.25000000       0.12500000       0.00000000 </v>
   <v>       0.37500000       0.12500000       0.00000000 </v>
   <v>       0.25000000       0.25000000       0.00000000 </v>
   <v>       0.37500000       0.25000000       0.00000000 </v>
  </varray>
  <varray name="weights" >
   <v>       0.01562500 </v>
   <v>       0.09375000 </v>
   <v>       0.09375000 </v>
   <v>       0.09375000 </v>
   <v>       0.04687500 </v>
   <v>       0.09375000 </v>
   <v>       0.18750000 </v>
   <v>       0.18750000 </v>
   <v>       0.09375000 </v>
   <v>       0.09375000 </v>
  </varray>
 </kpoints>
 <parameters>
  <separator name="general" >
   <i type="string" name="SYSTEM">unknown system</i>
   <i type="logical" name="LCOMPAT"> F  </i>
  </separator>
  <separator name="electronic" >
   <i type="string" name="PREC">normal</i>
   <i name="ENMAX">    250.00000000</i>
   <i name="ENAUG">    345.27800000</i>
   <i name="EDIFF">      0.00000100</i>
   <i type="int" name="IALGO">    68</i>
   <i type="int" name="IWAVPR">    10</i>
   <i type="int" name="NBANDS">    14</i>
   <i name="NELECT">     18.00000000</i>
   <i type="int" name="TURBO">     0</i>
   <i type="int" name="IRESTART">     0</i>
   <i type="int" name="NREBOOT">     0</i>
   <i type="int" name="NMIN">     0</i>
   <i name="EREF">      0.00000000</i>
   <separator name="electronic smearing" >
    <i type="int" name="ISMEAR">     0</i>
    <i name="SIGMA">      0.20000000</i>
    <i name="KSPACING">      0.50000000</i>
    <i type="logical" name="KGAMMA"> T  </i>
   </separator>
   <separator name="electronic projectors" >
    <i type="logical" name="LREAL"> T  </i>
    <v name="ROPT">     -0.00050000     -0.00050000</v>
    <i type="int" name="LMAXPAW">  -100</i>
    <i type="int" name="LMAXMIX">     2</i>
    <i type="logical" name="NLSPLINE"> F  </i>
   </separator>
   <separator name="electronic startup" >
    <i type="int" name="ISTART">     0</i>
    <i type="int" name="ICHARG">     2</i>
    <i type="int" name="INIWAV">     1</i>
   </separator>
   <separator name="electronic spin" >
    <i type="int" name="ISPIN">     1</i>
    <i type="logical" name="LNONCOLLINEAR"> F  </i>
    <v name="MAGMOM">      1.00000000      1.00000000      1.00000000</v>
    <i name="NUPDOWN">     -1.00000000</i>
    <i type="logical" name="LSORBIT"> F  </i>
    <v name="SAXIS">      0.00000000      0.00000000      1.00000000</v>
    <i type="logical" name="LSPIRAL"> F  </i>
    <v name="QSPIRAL">      0.00000000      0.00000000      0.00000000</v>
    <i type="logical" name="LZEROZ"> F  </i>
   </separator>
   <separator name="electronic exchange-correlation" >
    <i type="logical" name="LASPH"> F  </i>
    <i type="logical" name="LMETAGGA"> F  </i>
   </separator>
   <separator name="electronic convergence" >
    <i type="int" name="NELM">    60</i>
    <i type="int" name="NELMDL">    -5</i>
    <i type="int" name="NELMIN">     4</i>
    <i name="ENINI">    250.00000000</i>
    <separator name="electronic convergence detail" >
     <i type="logical" name="LDIAG"> T  </i>
     <i type="logical" name="LSUBROT"> F  </i>
     <i name="WEIMIN">      0.00000000</i>
     <i name="EBREAK">      0.00000002</i>
     <i name="DEPER">      0.30000000</i>
     <i type="int" name="NRMM">     4</i>
     <i name="TIME">      0.40000000</i>
    </separator>
   </separator>
   <separator name="electronic mixer" >
    <i name="AMIX">      0.40000000</i>
    <i name="BMIX">      1.00000000</i>
    <i name="AMIN">      0.10000000</i>
    <i name="AMIX_MAG">      1.60000000</i>
    <i name="BMIX_MAG">      1.00000000</i>
    <separator name="electronic mixer details" >
     <i type="int" name="IMIX">     4</i>
     <i type="logical" name="MIXFIRST"> F  </i>
     <i type="int" name="MAXMIX">   -45</i>
     <i name="WC">    100.00000000</i>
     <i type="int" name="INIMIX">     1</i>
     <i type="int" name="MIXPRE">     1</i>
     <i type="int" name="MREMOVE">     5</i>
    </separator>
   </separator>
   <separator name="electronic dipolcorrection" >
    <i type="logical" name="LDIPOL"> F  </i>
    <i type="logical" name="LMONO"> F  </i>
    <i type="int" name="IDIPOL">     0</i>
    <i name="EPSILON">      1.00000000</i>
    <v name="DIPOL">   -100.00000000   -100.00000000   -100.00000000</v>
    <i name="EFIELD">      0.00000000</i>
   </separator>
  </separator>
  <separator name="grids" >
   <i type="int" name="NGX">    12</i>
   <i type="int" name="NGY">    12</i>
   <i type="int" name="NGZ">   144</i>
   <i type="int" name="NGXF">    24</i>
   <i type="int" name="NGYF">    24</i>
   <i type="int" name="NGZF">   288</i>
   <i type="logical" name="ADDGRID"> F  </i>
  </separator>
  <separator name="ionic" >
   <i type="int" name="NSW">     0</i>
   <i type="int" name="IBRION">    -1</i>
   <i type="int" name="MDALGO">     0</i>
   <i type="int" name="ISIF">     2</i>
   <i name="PSTRESS">      0.00000000</i>
   <i name="EDIFFG">      0.00001000</i>
   <i type="int" name="NFREE">     0</i>
   <i name="POTIM">      0.50000000</i>
   <i name="SMASS">     -3.00000000</i>
   <i name="SCALEE">      1.00000000</i>
  </separator>
  <separator name="ionic md" >
   <i name="TEBEG">      0.00010000</i>
   <i name="TEEND">      0.00010000</i>
   <i type="int" name="NBLOCK">     1</i>
   <i type="int" name="KBLOCK">     1</i>
   <i type="int" name="NPACO">   256</i>
   <i name="APACO">     16.00000000</i>
  </separator>
  <separator name="symmetry" >
   <i type="int" name="ISYM">     2</i>
   <i name="SYMPREC">      0.00001000</i>
  </separator>
  <separator name="dos" >
   <i type="int" name="LORBIT">    11</i>
   <v name="RWIGS">     -1.00000000     -1.00000000</v>
   <i type="int" name="NEDOS">  2401</i>
   <i name="EMIN">    -12.00000000</i>
   <i name="EMAX">     12.00000000</i>
   <i name="EFERMI">      0.00000000</i>
  </separator>
  <separator name="writing" >
   <i type="int" name="NWRITE">     2</i>
   <i type="logical" name="LWAVE"> F  </i>
   <i type="logical" name="LDOWNSAMPLE"> F  </i>
   <i type="logical" name="LCHARG"> T  </i>
   <i type="logical" name="LPARD"> F  </i>
   <i type="logical" name="LVTOT"> F  </i>
   <i type="logical" name="LVHAR"> F  </i>
   <i type="logical" name="LELF"> T  </i>
   <i type="logical" name="LOPTICS"> F  </i>
   <v name="STM">      0.00000000      0.00000000      0.00000000      0.00000000      0.00000000      0.00000000      0.00000000</v>
  </separator>
  <separator name="performance" >
   <i type="int" name="NPAR">     2</i>
   <i type="int" name="NSIM">     4</i>
   <i type="int" name="NBLK">    -1</i>
   <i type="logical" name="LPLANE"> T  </i>
   <i type="logical" name="LSCALAPACK"> T  </i>
   <i type="logical" name="LSCAAWARE"> F  </i>
   <i type="logical" name="LSCALU"> F  </i>
   <i type="logical" name="LASYNC"> F  </i>
   <i type="logical" name="LORBITALREAL"> F  </i>
  </separator>
  <separator name="miscellaneous" >
   <i type="int" name="IDIOT">     3</i>
   <i type="int" name="ISPECIAL">     0</i>
   <i type="logical" name="LMUSIC"> F  </i>
   <v name="POMASS">     95.94000000     32.06600000</v>
   <v name="DARWINR">      0.00000000      0.00000000</v>
   <v name="DARWINV">      1.00000000      1.00000000</v>
   <i type="logical" name="LCORR"> T  </i>
  </separator>
  <i type="logical" name="GGA_COMPAT"> T  </i>
  <i type="logical" name="LBERRY"> F  </i>
  <i type="int" name="ICORELEVEL">     0</i>
  <i type="logical" name="LDAU"> F  </i>
  <i type="int" name="I_CONSTRAINED_M">     0</i>
  <separator name="electronic exchange-correlation" >
   <i type="string" name="GGA">--</i>
   <i type="int" name="VOSKOWN">     0</i>
   <i type="logical" name="LHFCALC"> F  </i>
   <i type="string" name="PRECFOCK"></i>
   <i type="logical" name="LSYMGRAD"> F  </i>
   <i type="logical" name="LHFONE"> F  </i>
   <i type="logical" name="LRHFCALC"> F  </i>
   <i type="logical" name="LTHOMAS"> F  </i>
   <i type="logical" name="LMODELHF"> F  </i>
   <i name="ENCUT4O">     -1.00000000</i>
   <i type="int" name="EXXOEP">     0</i>
   <i type="int" name="FOURORBIT">     0</i>
   <i name="AEXX">      0.00000000</i>
   <i name="HFALPHA">      0.00000000</i>
   <i name="MCALPHA">      0.00000000</i>
   <i name="ALDAX">      1.00000000</i>
   <i name="AGGAX">      1.00000000</i>
   <i name="ALDAC">      1.00000000</i>
   <i name="AGGAC">      1.00000000</i>
   <i type="int" name="NKREDX">     1</i>
   <i type="int" name="NKREDY">     1</i>
   <i type="int" name="NKREDZ">     1</i>
   <i type="logical" name="SHIFTRED"> F  </i>
   <i type="logical" name="ODDONLY"> F  </i>
   <i type="logical" name="EVENONLY"> F  </i>
   <i type="int" name="LMAXFOCK">     0</i>
   <i type="int" name="NMAXFOCKAE">     0</i>
   <i type="logical" name="LFOCKAEDFT"> F  </i>
   <i name="HFSCREEN">      0.00000000</i>
   <i name="HFSCREENC">      0.00000000</i>
   <i type="int" name="NBANDSGWLOW">     0</i>
  </separator>
  <separator name="vdW DFT" >
   <i type="logical" name="LUSE_VDW"> F  </i>
   <i name="Zab_VDW">     -0.84910000</i>
   <i name="PARAM1">      0.12340000</i>
   <i name="PARAM2">      1.00000000</i>
   <i name="PARAM3">      0.00000000</i>
  </separator>
  <separator name="model GW" >
   <i type="int" name="MODEL_GW">     0</i>
   <i name="MODEL_EPS0">     65.01403859</i>
   <i name="MODEL_ALPHA">      1.00000000</i>
  </separator>
  <separator name="linear response parameters" >
   <i type="logical" name="LEPSILON"> F  </i>
   <i type="logical" name="LRPA"> F  </i>
   <i type="logical" name="LNABLA"> F  </i>
   <i type="logical" name="LVEL"> F  </i>
   <i type="int" name="KINTER">     0</i>
   <i name="CSHIFT">      0.10000000</i>
   <i name="OMEGAMAX">     -1.00000000</i>
   <i name="DEG_THRESHOLD">      0.00200000</i>
   <i name="RTIME">     -0.10000000</i>
   <i name="WPLASMAI">      0.00000000</i>
   <v name="DFIELD">      0.00000000      0.00000000      0.00000000</v>
   <v name="WPLASMA">      0.00000000      0.00000000      0.00000000      0.00000000      0.00000000      0.00000000      0.00000000      0.00000000      0.00000000</v>
  </separator>
  <separator name="orbital magnetization" >
   <i type="logical" name="NUCIND"> F  </i>
   <v name="MAGPOS">      0.00000000      0.00000000      0.00000000</v>
   <i type="logical" name="LNICSALL"> T  </i>
   <i type="logical" name="ORBITALMAG"> F  </i>
   <i type="logical" name="LMAGBLOCH"> F  </i>
   <i type="logical" name="LCHIMAG"> F  </i>
   <i type="logical" name="LGAUGE"> T  </i>
   <i type="int" name="MAGATOM">     0</i>
   <v name="MAGDIPOL">      0.00000000      0.00000000      0.00000000</v>
   <v name="AVECCONST">      0.00000000      0.00000000      0.00000000</v>
  </separator>
  <separator name="response functions" >
   <i type="logical" name="LADDER"> F  </i>
   <i type="logical" name="LRPAFORCE"> F  </i>
   <i type="logical" name="LFXC"> F  </i>
   <i type="logical" name="LHARTREE"> T  </i>
   <i type="int" name="IBSE">     0</i>
   <v type="int" name="KPOINT">    -1     0     0     0</v>
   <i type="logical" name="LTCTE"> F  </i>
   <i type="logical" name="LTETE"> F  </i>
   <i type="logical" name="LTRIPLET"> F  </i>
   <i type="logical" name="LFXCEPS"> F  </i>
   <i type="logical" name="LFXHEG"> F  </i>
   <i type="int" name="NATURALO">     2</i>
   <i type="logical" name="L2ORDER"> F  </i>
   <i type="logical" name="LMP2LT"> F  </i>
   <i type="logical" name="LUSEW"> F  </i>
   <i name="ENCUTGW">     -2.00000000</i>
   <i name="ENCUTGWSOFT">     -2.00000000</i>
   <i name="ENCUTLF">     -1.00000000</i>
   <i type="int" name="LMAXMP2">    -1</i>
   <i name="SCISSOR">      0.00000000</i>
   <i type="int" name="NOMEGA">     0</i>
   <i type="int" name="NOMEGAR">     0</i>
   <i type="int" name="NBANDSGW">    -1</i>
   <i type="int" name="NBANDSO">    -1</i>
   <i type="int" name="NBANDSV">    -1</i>
   <i type="int" name="NELM">     1</i>
   <i type="int" name="NELMHF">     1</i>
   <i type="int" name="DIM">     3</i>
   <i type="int" name="ANTIRES">     0</i>
   <i name="OMEGAMAX">    -30.00000000</i>
   <i name="OMEGAMIN">    -30.00000000</i>
   <i name="OMEGATL">   -200.00000000</i>
   <i type="int" name="OMEGAGRID">   140</i>
   <i name="CSHIFT">     -0.10000000</i>
   <i type="logical" name="SELFENERGY"> F  </i>
   <i type="logical" name="LSPECTRAL"> F  </i>
   <i type="logical" name="LSPECTRALGW"> F  </i>
   <i type="logical" name="LSINGLES"> F  </i>
   <i type="logical" name="LFERMIGW"> F  </i>
   <i type="logical" name="ODDONLYGW"> F  </i>
   <i type="logical" name="EVENONLYGW"> F  </i>
   <i type="int" name="NKREDLFX">     1</i>
   <i type="int" name="NKREDLFY">     1</i>
   <i type="int" name="NKREDLFZ">     1</i>
   <i type="int" name="MAXMEM">  2800</i>
   <i type="int" name="TELESCOPE">     0</i>
   <i type="int" name="TAUPAR">     1</i>
   <i type="int" name="OMEGAPAR">    -1</i>
   <i name="LAMBDA">      1.00000000</i>
  </separator>
  <separator name="External order field" >
   <i name="OFIELD_KAPPA">      0.00000000</i>
   <v name="OFIELD_K">      0.00000000      0.00000000      0.00000000</v>
   <i name="OFIELD_Q6_NEAR">      0.00000000</i>
   <i name="OFIELD_Q6_FAR">      0.00000000</i>
   <i name="OFIELD_A">      0.00000000</i>
  </separator>
 </parameters>
 <atominfo>
  <atoms>       3 </atoms>
  <types>       2 </types>
  <array name="atoms" >
   <dimension dim="1">ion</dimension>
   <field type="string">element</field>
   <field type="int">atomtype</field>
   <set>
    <rc><c>Mo</c><c>   1</c></rc>
    <rc><c>S </c><c>   2</c></rc>
    <rc><c>S </c><c>   2</c></rc>
   </set>
  </array>
  <array name="atomtypes" >
   <dimension dim="1">type</dimension>
   <field type="int">atomspertype</field>
   <field type="string">element</field>
   <field>mass</field>
   <field>valence</field>
   <field type="string">pseudopotential</field>
   <set>
    <rc><c>   1</c><c>Mo</c><c>     95.94000000</c><c>      6.00000000</c><c> PAW_PBE Mo 08Apr2002                   </c></rc>
    <rc><c>   2</c><c>S </c><c>     32.06600000</c><c>      6.00000000</c><c>  PAW_PBE S 17Jan2003                   </c></rc>
   </set>
  </array>
 </atominfo>
 <structure name="initialpos" >
  <crystal>
   <varray name="basis" >
    <v>       3.19031573       0.00000000       0.00000000 </v>
    <v>      -1.59515786       2.76289447       0.00000000 </v>
    <v>       0.00000000       0.00000000      36.87900430 </v>
   </varray>
   <i name="volume">    325.07019297 </i>
   <varray name="rec_basis" >
    <v>       0.31344860       0.18096963       0.00000000 </v>
    <v>       0.00000000       0.36193927       0.00000000 </v>
    <v>       0.00000000       0.00000000       0.02711570 </v>
   </varray>
  </crystal>
  <varray name="positions" >
   <v>       0.33333300       0.66666700       0.10086365 </v>
   <v>       0.66666700       0.33333300       0.05843072 </v>
   <v>       0.66666600       0.33333300       0.14329659 </v>
  </varray>
 </structure>
 <calculation>
  <scstep>
   <time name="dav">    0.14    0.16</time>
   <time name="total">    0.17    0.87</time>
   <energy>
    <i name="alphaZ">      9.12067405 </i>
    <i name="ewald">   7002.89978793 </i>
    <i name="hartreedc">  -7667.79646691 </i>
    <i name="XCdc">    -36.31055829 </i>
    <i name="pawpsdc">    406.88651198 </i>
    <i name="pawaedc">   -329.34073203 </i>
    <i name="eentropy">     -0.06371591 </i>
    <i name="bandstr">    -66.46810562 </i>
    <i name="atom">    771.06857575 </i>
    <i name="e_fr_energy">     89.99597095 </i>
    <i name="e_wo_entrp">     90.05968686 </i>
    <i name="e_0_energy">     90.02782890 </i>
   </energy>
  </scstep>
  <scstep>
   <time name="dav">    0.19    0.19</time>
   <time name="total">    0.19    0.19</time>
   <energy>
    <i name="e_fr_energy">    -12.23676903 </i>
    <i name="e_wo_entrp">    -12.23676903 </i>
    <i name="e_0_energy">    -12.23676903 </i>
   </energy>
  </scstep>
  <scstep>
   <time name="dav">    0.16    0.16</time>
   <time name="total">    0.16    0.16</time>
   <energy>
    <i name="e_fr_energy">    -23.15630358 </i>
    <i name="e_wo_entrp">    -23.15630358 </i>
    <i name="e_0_energy">    -23.15630358 </i>
   </energy>
  </scstep>
  <scstep>
   <time name="dav">    0.16    0.16</time>
   <time name="total">    0.16    0.16</time>
   <energy>
    <i name="e_fr_energy">    -23.36615109 </i>
    <i name="e_wo_entrp">    -23.36615109 </i>
    <i name="e_0_energy">    -23.36615109 </i>
   </energy>
  </scstep>
  <scstep>
   <time name="dav">    0.14    0.14</time>
   <time name="total">    0.15    0.15</time>
   <energy>
    <i name="e_fr_energy">    -23.37017097 </i>
    <i name="e_wo_entrp">    -23.37017097 </i>
    <i name="e_0_energy">    -23.37017097 </i>
   </energy>
  </scstep>
  <scstep>
   <time name="diag">    0.02    0.02</time>
   <time name="diis">    0.09    0.09</time>
   <time name="orth">    0.00    0.00</time>
   <time name="total">    0.15    0.15</time>
   <energy>
    <i name="e_fr_energy">    -22.21016910 </i>
    <i name="e_wo_entrp">    -22.21016906 </i>
    <i name="e_0_energy">    -22.21016908 </i>
   </energy>
  </scstep>
  <scstep>
   <time name="diag">    0.02    0.02</time>
   <time name="diis">    0.09    0.09</time>
   <time name="orth">    0.00    0.00</time>
   <time name="total">    0.15    0.15</time>
   <energy>
    <i name="e_fr_energy">    -21.82849244 </i>
    <i name="e_wo_entrp">    -21.82849244 </i>
    <i name="e_0_energy">    -21.82849244 </i>
   </energy>
  </scstep>
  <scstep>
   <time name="diag">    0.02    0.02</time>
   <time name="diis">    0.09    0.09</time>
   <time name="orth">    0.00    0.00</time>
   <time name="total">    0.15    0.15</time>
   <energy>
    <i name="e_fr_energy">    -21.76758651 </i>
    <i name="e_wo_entrp">    -21.76758651 </i>
    <i name="e_0_energy">    -21.76758651 </i>
   </energy>
  </scstep>
  <scstep>
   <time name="diag">    0.02    0.02</time>
   <time name="diis">    0.10    0.10</time>
   <time name="orth">    0.00    0.00</time>
   <time name="total">    0.16    0.16</time>
   <energy>
    <i name="e_fr_energy">    -21.76293175 </i>
    <i name="e_wo_entrp">    -21.76293175 </i>
    <i name="e_0_energy">    -21.76293175 </i>
   </energy>
  </scstep>
  <scstep>
   <time name="diag">    0.02    0.02</time>
   <time name="diis">    0.10    0.10</time>
   <time name="orth">    0.00    0.00</time>
   <time name="total">    0.16    0.17</time>
   <energy>
    <i name="e_fr_energy">    -21.76224582 </i>
    <i name="e_wo_entrp">    -21.76224582 </i>
    <i name="e_0_energy">    -21.76224582 </i>
   </energy>
  </scstep>
  <scstep>
   <time name="diag">    0.02    0.02</time>
   <time name="diis">    0.10    0.09</time>
   <time name="orth">    0.00    0.00</time>
   <time name="total">    0.16    0.16</time>
   <energy>
    <i name="e_fr_energy">    -21.76215462 </i>
    <i name="e_wo_entrp">    -21.76215462 </i>
    <i name="e_0_energy">    -21.76215462 </i>
   </energy>
  </scstep>
  <scstep>
   <time name="diag">    0.02    0.02</time>
   <time name="diis">    0.09    0.09</time>
   <time name="orth">    0.00    0.00</time>
   <time name="total">    0.16    0.16</time>
   <energy>
    <i name="e_fr_energy">    -21.76205590 </i>
    <i name="e_wo_entrp">    -21.76205590 </i>
    <i name="e_0_energy">    -21.76205590 </i>
   </energy>
  </scstep>
  <scstep>
   <time name="diag">    0.02    0.02</time>
   <time name="diis">    0.09    0.09</time>
   <time name="orth">    0.00    0.00</time>
   <time name="total">    0.15    0.15</time>
   <energy>
    <i name="e_fr_energy">    -21.76244899 </i>
    <i name="e_wo_entrp">    -21.76244899 </i>
    <i name="e_0_energy">    -21.76244899 </i>
   </energy>
  </scstep>
  <scstep>
   <time name="diag">    0.02    0.02</time>
   <time name="diis">    0.10    0.10</time>
   <time name="orth">    0.00    0.00</time>
   <time name="total">    0.16    0.16</time>
   <energy>
    <i name="e_fr_energy">    -21.76252507 </i>
    <i name="e_wo_entrp">    -21.76252507 </i>
    <i name="e_0_energy">    -21.76252507 </i>
   </energy>
  </scstep>
  <scstep>
   <time name="diag">    0.02    0.02</time>
   <time name="diis">    0.08    0.08</time>
   <time name="orth">    0.00    0.00</time>
   <time name="total">    0.15    0.15</time>
   <energy>
    <i name="e_fr_energy">    -21.76267335 </i>
    <i name="e_wo_entrp">    -21.76267335 </i>
    <i name="e_0_energy">    -21.76267335 </i>
   </energy>
  </scstep>
  <scstep>
   <time name="diag">    0.02    0.02</time>
   <time name="diis">    0.08    0.08</time>
   <time name="orth">    0.00    0.00</time>
   <time name="total">    0.14    0.14</time>
   <energy>
    <i name="e_fr_energy">    -21.76271842 </i>
    <i name="e_wo_entrp">    -21.76271842 </i>
    <i name="e_0_energy">    -21.76271842 </i>
   </energy>
  </scstep>
  <scstep>
   <time name="diag">    0.02    0.02</time>
   <time name="diis">    0.07    0.07</time>
   <time name="orth">    0.00    0.00</time>
   <time name="total">    0.13    0.13</time>
   <energy>
    <i name="e_fr_energy">    -21.76276151 </i>
    <i name="e_wo_entrp">    -21.76276151 </i>
    <i name="e_0_energy">    -21.76276151 </i>
   </energy>
  </scstep>
  <scstep>
   <time name="diag">    0.02    0.02</time>
   <time name="diis">    0.06    0.06</time>
   <time name="orth">    0.00    0.00</time>
   <time name="total">    0.13    0.13</time>
   <energy>
    <i name="e_fr_energy">    -21.76276514 </i>
    <i name="e_wo_entrp">    -21.76276514 </i>
    <i name="e_0_energy">    -21.76276514 </i>
   </energy>
  </scstep>
  <scstep>
   <time name="diag">    0.02    0.02</time>
   <time name="diis">    0.07    0.07</time>
   <time name="orth">    0.00    0.00</time>
   <time name="total">    0.13    0.13</time>
   <energy>
    <i name="e_fr_energy">    -21.76277244 </i>
    <i name="e_wo_entrp">    -21.76277244 </i>
    <i name="e_0_energy">    -21.76277244 </i>
   </energy>
  </scstep>
  <scstep>
   <time name="diag">    0.02    0.02</time>
   <time name="diis">    0.06    0.06</time>
   <time name="orth">    0.00    0.00</time>
   <time name="total">    0.12    0.12</time>
   <energy>
    <i name="e_fr_energy">    -21.76277351 </i>
    <i name="e_wo_entrp">    -21.76277351 </i>
    <i name="e_0_energy">    -21.76277351 </i>
   </energy>
  </scstep>
  <scstep>
   <time name="diag">    0.02    0.02</time>
   <time name="diis">    0.05    0.05</time>
   <time name="orth">    0.00    0.00</time>
   <time name="total">    0.10    0.10</time>
   <energy>
    <i name="alphaZ">      9.12067405 </i>
    <i name="ewald">   7002.89978793 </i>
    <i name="hartreedc">  -7681.58806577 </i>
    <i name="XCdc">    -35.17203316 </i>
    <i name="pawpsdc">    478.68819822 </i>
    <i name="pawaedc">   -402.87923455 </i>
    <i name="eentropy">     -0.00000000 </i>
    <i name="bandstr">   -163.90067633 </i>
    <i name="atom">    771.06857575 </i>
    <i name="e_fr_energy">    -21.76277386 </i>
    <i name="e_wo_entrp">    -21.76277386 </i>
    <i name="e_0_energy">    -21.76277386 </i>
   </energy>
  </scstep>
  <structure>
   <crystal>
    <varray name="basis" >
     <v>       3.19031573       0.00000000       0.00000000 </v>
     <v>      -1.59515786       2.76289447       0.00000000 </v>
     <v>       0.00000000       0.00000000      36.87900430 </v>
    </varray>
    <i name="volume">    325.07019297 </i>
    <varray name="rec_basis" >
     <v>       0.31344860       0.18096963       0.00000000 </v>
     <v>       0.00000000       0.36193927       0.00000000 </v>
     <v>       0.00000000       0.00000000       0.02711570 </v>
    </varray>
   </crystal>
   <varray name="positions" >
    <v>       0.33333300       0.66666700       0.10086365 </v>
    <v>       0.66666700       0.33333300       0.05843072 </v>
    <v>       0.66666600       0.33333300       0.14329659 </v>
   </varray>
  </structure>
  <varray name="forces" >
   <v>      -0.00000000      -0.00000000       0.00000000 </v>
   <v>       0.00000000       0.00000000       0.10061297 </v>
   <v>       0.00000000       0.00000000      -0.10061297 </v>
  </varray>
  <varray name="stress" >
   <v>      -3.01530139       0.00000000       0.00000000 </v>
   <v>       0.00000000      -3.01530139       0.00000000 </v>
   <v>       0.00000000       0.00000000      -4.37535135 </v>
  </varray>
  <energy>
   <i name="e_fr_energy">    -22.35349704 </i>
   <i name="e_wo_entrp">    -22.35349704 </i>
   <i name="e_0_energy">     -0.00000000 </i>
  </energy>
  <time name="totalsc">    3.55    4.51</time>
  <eigenvalues>
   <array>
    <dimension dim="1">band</dimension>
    <dimension dim="2">kpoint</dimension>
    <dimension dim="3">spin</dimension>
    <field>eigene</field>
    <field>occ</field>
    <set>
     <set comment="spin 1">
      <set comment="kpoint 1">
       <r>  -18.1531    1.0000 </r>
       <r>  -16.9447    1.0000 </r>
       <r>   -9.6624    1.0000 </r>
       <r>   -6.7010    1.0000 </r>
       <r>   -6.7007    1.0000 </r>
       <r>   -5.8410    1.0000 </r>
       <r>   -5.5934    1.0000 </r>
       <r>   -5.5929    1.0000 </r>
       <r>   -4.1186    1.0000 </r>
       <r>   -1.3445    0.0000 </r>
       <r>   -1.3437    0.0000 </r>
       <r>   -1.1219    0.0000 </r>
       <r>   -1.1212    0.0000 </r>
       <r>    1.2883    0.0000 </r>
      </set>
      <set comment="kpoint 2">
       <r>  -17.9391    1.0000 </r>
       <r>  -16.8423    1.0000 </r>
       <r>   -9.4181    1.0000 </r>
       <r>   -7.1653    1.0000 </r>
       <r>   -6.6483    1.0000 </r>
       <r>   -6.4666    1.0000 </r>
       <r>   -5.9301    1.0000 </r>
       <r>   -5.1625    1.0000 </r>
       <r>   -4.2574    1.0000 </r>
       <r>   -1.6272    0.0000 </r>
       <r>   -1.5607    0.0000 </r>
       <r>   -1.3592    0.0000 </r>
       <r>   -0.9903    0.0000 </r>
       <r>    1.7176    0.0000 </r>
      </set>
      <set comment="kpoint 3">
       <r>  -17.3705    1.0000 </r>
       <r>  -16.5734    1.0000 </r>
       <r>   -9.0521    1.0000 </r>
       <r>   -7.8935    1.0000 </r>
       <r>   -7.6298    1.0000 </r>
       <r>   -6.5665    1.0000 </r>
       <r>   -5.8808    1.0000 </r>
       <r>   -5.4146    1.0000 </r>
       <r>   -4.8260    1.0000 </r>
       <r>   -1.9514    0.0000 </r>
       <r>   -1.7763    0.0000 </r>
       <r>   -1.2332    0.0000 </r>
       <r>   -0.3752    0.0000 </r>
       <r>    2.4780    0.0000 </r>
      </set>
      <set comment="kpoint 4">
       <r>  -16.6956    1.0000 </r>
       <r>  -16.2648    1.0000 </r>
       <r>   -9.4913    1.0000 </r>
       <r>   -8.4987    1.0000 </r>
       <r>   -8.0248    1.0000 </r>
       <r>   -7.0650    1.0000 </r>
       <r>   -5.8235    1.0000 </r>
       <r>   -5.2908    1.0000 </r>
       <r>   -5.0202    1.0000 </r>
       <r>   -1.9589    0.0000 </r>
       <r>   -1.6790    0.0000 </r>
       <r>   -0.5145    0.0000 </r>
       <r>    0.0175    0.0000 </r>
       <r>    3.0417    0.0000 </r>
      </set>
      <set comment="kpoint 5">
       <r>  -16.3673    1.0000 </r>
       <r>  -16.1215    1.0000 </r>
       <r>   -9.8241    1.0000 </r>
       <r>   -8.8648    1.0000 </r>
       <r>   -8.1507    1.0000 </r>
       <r>   -7.2459    1.0000 </r>
       <r>   -5.9620    1.0000 </r>
       <r>   -5.0638    1.0000 </r>
       <r>   -4.7388    1.0000 </r>
       <r>   -1.9373    0.0000 </r>
       <r>   -1.4225    0.0000 </r>
       <r>   -0.2145    0.0000 </r>
       <r>    0.1329    0.0000 </r>
       <r>    2.0873    0.0000 </r>
      </set>
      <set comment="kpoint 6">
       <r>  -17.5464    1.0000 </r>
       <r>  -16.6552    1.0000 </r>
       <r>   -9.0707    1.0000 </r>
       <r>   -7.7307    1.0000 </r>
       <r>   -7.2111    1.0000 </r>
       <r>   -6.7444    1.0000 </r>
       <r>   -6.1282    1.0000 </r>
       <r>   -5.0278    1.0000 </r>
       <r>   -4.6303    1.0000 </r>
       <r>   -2.0266    0.0000 </r>
       <r>   -1.6490    0.0000 </r>
       <r>   -1.6370    0.0000 </r>
       <r>   -0.3964    0.0000 </r>
       <r>    2.2520    0.0000 </r>
      </set>
      <set comment="kpoint 7">
       <r>  -16.9130    1.0000 </r>
       <r>  -16.3566    1.0000 </r>
       <r>   -9.1349    1.0000 </r>
       <r>   -8.1572    1.0000 </r>
       <r>   -7.8939    1.0000 </r>
       <r>   -7.2498    1.0000 </r>
       <r>   -6.0292    1.0000 </r>
       <r>   -5.3907    1.0000 </r>
       <r>   -4.9140    1.0000 </r>
       <r>   -2.1103    0.0000 </r>
       <r>   -1.6635    0.0000 </r>
       <r>   -1.1668    0.0000 </r>
       <r>    0.1092    0.0000 </r>
       <r>    3.2307    0.0000 </r>
      </set>
      <set comment="kpoint 8">
       <r>  -16.3826    1.0000 </r>
       <r>  -16.1126    1.0000 </r>
       <r>   -9.5367    1.0000 </r>
       <r>   -8.9207    1.0000 </r>
       <r>   -8.0226    1.0000 </r>
       <r>   -7.2671    1.0000 </r>
       <r>   -6.0140    1.0000 </r>
       <r>   -5.8716    1.0000 </r>
       <r>   -4.5872    1.0000 </r>
       <r>   -1.9182    0.0000 </r>
       <r>   -1.4081    0.0000 </r>
       <r>   -0.5427    0.0000 </r>
       <r>    0.1434    0.0000 </r>
       <r>    2.6130    0.0000 </r>
      </set>
      <set comment="kpoint 9">
       <r>  -16.3976    1.0000 </r>
       <r>  -16.1037    1.0000 </r>
       <r>   -9.1761    1.0000 </r>
       <r>   -8.9708    1.0000 </r>
       <r>   -7.6965    1.0000 </r>
       <r>   -7.3157    1.0000 </r>
       <r>   -6.9964    1.0000 </r>
       <r>   -5.7390    1.0000 </r>
       <r>   -4.6170    1.0000 </r>
       <r>   -1.9690    0.0000 </r>
       <r>   -1.3574    0.0000 </r>
       <r>   -1.0409    0.0000 </r>
       <r>    0.4273    0.0000 </r>
       <r>    3.4427    0.0000 </r>
      </set>
      <set comment="kpoint 10">
       <r>  -16.1627    1.0000 </r>
       <r>  -15.9847    1.0000 </r>
       <r>   -9.3555    1.0000 </r>
       <r>   -9.0069    1.0000 </r>
       <r>   -7.9800    1.0000 </r>
       <r>   -7.3180    1.0000 </r>
       <r>   -7.0897    1.0000 </r>
       <r>   -6.1244    1.0000 </r>
       <r>   -4.2498    1.0000 </r>
       <r>   -2.2954    0.0000 </r>
       <r>   -0.9802    0.0000 </r>
       <r>   -0.8082    0.0000 </r>
       <r>    0.5705    0.0000 </r>
       <r>    2.8562    0.0000 </r>
      </set>
     </set>
    </set>
   </array>
  </eigenvalues>
  <separator name="orbital magnetization" >
   <v name="MAGDIPOLOUT">      0.00000000      0.00000000      0.00000000</v>
  </separator>
  <dos>
   <i name="efermi">     -3.29000000 </i>
   <total>
    <array>
     <dimension dim="1">gridpoints</dimension>
     <dimension dim="2">spin</dimension>
     <field>energy</field>
     <field>total</field>
     <field>integrated</field>
     <set>
      <set comment="spin 1">
       <r>   -12.0000   400.0000     4.0000 </r>
       <r>   -11.9900     0.0000     4.0000 </r>
       <r>   -11.9800     0.0000     4.0000 </r>
       <r>   -11.9700     0.0000     4.0000 </r>
       <r>   -11.9600     0.0000     4.0000 </r>
       <r>   -11.9500     0.0000     4.0000 </r>
       <r>   -11.9400     0.0000     4.0000 </r>
       <r>   -11.9300     0.0000     4.0000 </r>
       <r>   -11.9200     0.0000     4.0000 </r>
       <r>   -11.9100     0.0000     4.0000 </r>
       <r>   -11.9000     0.0000     4.0000 </r>
       <r>   -11.8900     0.0000     4.0000 </r>
       <r>   -11.8800     0.0000     4.0000 </r>
       <r>   -11.8700     0.0000     4.0000 </r>
       <r>   -11.8600     0.0000     4.0000 </r>
       <r>   -11.8500     0.0000     4.0000 </r>
       <r>   -11.8400     0.0000     4.0000 </r>
       <r>   -11.8300     0.0000     4.0000 </r>
       <r>   -11.8200     0.0000     4.0000 </r>
       <r>   -11.8100     0.0000     4.0000 </r>
       <r>   -11.8000     0.0000     4.0000 </r>
       <r>   -11.7900     0.0000     4.0000 </r>
       <r>   -11.7800     0.0000     4.0000 </r>
       <r>   -11.7700     0.0000     4.0000 </r>
       <r>   -11.7600     0.0000     4.0000 </r>
       <r>   -11.7500     0.0000     4.0000 </r>
       <r>   -11.7400     0.0000     4.0000 </r>
       <r>   -11.7300     0.0000     4.0000 </r>
       <r>   -11.7200     0.0000     4.0000 </r>
       <r>   -11.7100     0.0000     4.0000 </r>
       <r>   -11.7000     0.0000     4.0000 </r>
       <r>   -11.6900     0.0000     4.0000 </r>
       <r>   -11.6800     0.0000     4.0000 </r>
       <r>   -11.6700     0.0000     4.0000 </r>
       <r>   -11.6600     0.0000     4.0000 </r>
       <r>   -11.6500     0.0000     4.0000 </r>
       <r>   -11.6400     0.0000     4.0000 </r>
       <r>   -11.6300     0.0000     4.0000 </r>
       <r>   -11.6200     0.0000     4.0000 </r>
       <r>   -11.6100     0.0000     4.0000 </r>
       <r>   -11.6000     0.0000     4.0000 </r>
       <r>   -11.5900     0.0000     4.0000 </r>
       <r>   -11.5800     0.0000     4.0000 </r>
       <r>   -11.5700     0.0000     4.0000 </r>
       <r>   -11.5600     0.0000     4.0000 </r>
       <r>   -11.5500     0.0000     4.0000 </r>
       <r>   -11.5400     0.0000     4.0000 </r>
       <r>   -11.5300     0.0000     4.0000 </r>
       <r>   -11.5200     0.0000     4.0000 </r>
       <r>   -11.5100     0.0000     4.0000 </r>
       <r>   -11.5000     0.0000     4.0000 </r>
       <r>   -11.4900     0.0000     4.0000 </r>
       <r>   -11.4800     0.0000     4.0000 </r>
       <r>   -11.4700     0.0000     4.0000 </r>
       <r>   -11.4600     0.0000     4.0000 </r>
       <r>   -11.4500     0.0000     4.0000 </r>
       <r>   -11.4400     0.0000     4.0000 </r>
       <r>   -11.4300     0.0000     4.0000 </r>
       <r>   -11.4200     0.0000     4.0000 </r>
       <r>   -11.4100     0.0000     4.0000 </r>
       <r>   -11.4000     0.0000     4.0000 </r>
       <r>   -11.3900     0.0000     4.0000 </r>
       <r>   -11.3800     0.0000     4.0000 </r>
       <r>   -11.3700     0.0000     4.0000 </r>
       <r>   -11.3600     0.0000     4.0000 </r>
       <r>   -11.3500     0.0000     4.0000 </r>
       <r>   -11.3400     0.0000     4.0000 </r>
       <r>   -11.3300     0.0000     4.0000 </r>
       <r>   -11.3200     0.0000     4.0000 </r>
       <r>   -11.3100     0.0000     4.0000 </r>
       <r>   -11.3000     0.0000     4.0000 </r>
       <r>   -11.2900     0.0000     4.0000 </r>
       <r>   -11.2800     0.0000     4.0000 </r>
       <r>   -11.2700     0.0000     4.0000 </r>
       <r>   -11.2600     0.0000     4.0000 </r>
       <r>   -11.2500     0.0000     4.0000 </r>
       <r>   -11.2400     0.0000     4.0000 </r>
       <r>   -11.2300     0.0000     4.0000 </r>
       <r>   -11.2200     0.0000     4.0000 </r>
       <r>   -11.2100     0.0000     4.0000 </r>
       <r>   -11.2000     0.0000     4.0000 </r>
       <r>   -11.1900     0.0000     4.0000 </r>
       <r>   -11.1800     0.0000     4.0000 </r>
       <r>   -11.1700     0.0000     4.0000 </r>
       <r>   -11.1600     0.0000     4.0000 </r>
       <r>   -11.1500     0.0000     4.0000 </r>
       <r>   -11.1400     0.0000     4.0000 </r>
       <r>   -11.1300     0.0000     4.0000 </r>
       <r>   -11.1200     0.0000     4.0000 </r>
       <r>   -11.1100     0.0000     4.0000 </r>
       <r>   -11.1000     0.0000     4.0000 </r>
       <r>   -11.0900     0.0000     4.0000 </r>
       <r>   -11.0800     0.0000     4.0000 </r>
       <r>   -11.0700     0.0000     4.0000 </r>
       <r>   -11.0600     0.0000     4.0000 </r>
       <r>   -11.0500     0.0000     4.0000 </r>
       <r>   -11.0400     0.0000     4.0000 </r>
       <r>   -11.0300     0.0000     4.0000 </r>
       <r>   -11.0200     0.0000     4.0000 </r>
       <r>   -11.0100     0.0000     4.0000 </r>
       <r>   -11.0000     0.0000     4.0000 </r>
       <r>   -10.9900     0.0000     4.0000 </r>
       <r>   -10.9800     0.0000     4.0000 </r>
       <r>   -10.9700     0.0000     4.0000 </r>
       <r>   -10.9600     0.0000     4.0000 </r>
       <r>   -10.9500     0.0000     4.0000 </r>
       <r>   -10.9400     0.0000     4.0000 </r>
       <r>   -10.9300     0.0000     4.0000 </r>
       <r>   -10.9200     0.0000     4.0000 </r>
       <r>   -10.9100     0.0000     4.0000 </r>
       <r>   -10.9000     0.0000     4.0000 </r>
       <r>   -10.8900     0.0000     4.0000 </r>
       <r>   -10.8800     0.0000     4.0000 </r>
       <r>   -10.8700     0.0000     4.0000 </r>
       <r>   -10.8600     0.0000     4.0000 </r>
       <r>   -10.8500     0.0000     4.0000 </r>
       <r>   -10.8400     0.0000     4.0000 </r>
       <r>   -10.8300     0.0000     4.0000 </r>
       <r>   -10.8200     0.0000     4.0000 </r>
       <r>   -10.8100     0.0000     4.0000 </r>
       <r>   -10.8000     0.0000     4.0000 </r>
       <r>   -10.7900     0.0000     4.0000 </r>
       <r>   -10.7800     0.0000     4.0000 </r>
       <r>   -10.7700     0.0000     4.0000 </r>
       <r>   -10.7600     0.0000     4.0000 </r>
       <r>   -10.7500     0.0000     4.0000 </r>
       <r>   -10.7400     0.0000     4.0000 </r>
       <r>   -10.7300     0.0000     4.0000 </r>
       <r>   -10.7200     0.0000     4.0000 </r>
       <r>   -10.7100     0.0000     4.0000 </r>
       <r>   -10.7000     0.0000     4.0000 </r>
       <r>   -10.6900     0.0000     4.0000 </r>
       <r>   -10.6800     0.0000     4.0000 </r>
       <r>   -10.6700     0.0000     4.0000 </r>
       <r>   -10.6600     0.0000     4.0000 </r>
       <r>   -10.6500     0.0000     4.0000 </r>
       <r>   -10.6400     0.0000     4.0000 </r>
       <r>   -10.6300     0.0000     4.0000 </r>
       <r>   -10.6200     0.0000     4.0000 </r>
       <r>   -10.6100     0.0000     4.0000 </r>
       <r>   -10.6000     0.0000     4.0000 </r>
       <r>   -10.5900     0.0000     4.0000 </r>
       <r>   -10.5800     0.0000     4.0000 </r>
       <r>   -10.5700     0.0000     4.0000 </r>
       <r>   -10.5600     0.0000     4.0000 </r>
       <r>   -10.5500     0.0000     4.0000 </r>
       <r>   -10.5400     0.0000     4.0000 </r>
       <r>   -10.5300     0.0000     4.0000 </r>
       <r>   -10.5200     0.0000     4.0000 </r>
       <r>   -10.5100     0.0000     4.0000 </r>
       <r>   -10.5000     0.0000     4.0000 </r>
       <r>   -10.4900     0.0000     4.0000 </r>
       <r>   -10.4800     0.0000     4.0000 </r>
       <r>   -10.4700     0.0000     4.0000 </r>
       <r>   -10.4600     0.0000     4.0000 </r>
       <r>   -10.4500     0.0000     4.0000 </r>
       <r>   -10.4400     0.0000     4.0000 </r>
       <r>   -10.4300     0.0000     4.0000 </r>
       <r>   -10.4200     0.0000     4.0000 </r>
       <r>   -10.4100     0.0000     4.0000 </r>
       <r>   -10.4000     0.0001     4.0000 </r>
       <r>   -10.3900     0.0001     4.0000 </r>
       <r>   -10.3800     0.0001     4.0000 </r>
       <r>   -10.3700     0.0001     4.0000 </r>
       <r>   -10.3600     0.0002     4.0000 </r>
       <r>   -10.3500     0.0002     4.0000 </r>
       <r>   -10.3400     0.0003     4.0000 </r>
       <r>   -10.3300     0.0004     4.0000 </r>
       <r>   -10.3200     0.0005     4.0000 </r>
       <r>   -10.3100     0.0006     4.0000 </r>
       <r>   -10.3000     0.0008     4.0000 </r>
       <r>   -10.2900     0.0010     4.0000 </r>
       <r>   -10.2800     0.0013     4.0001 </r>
       <r>   -10.2700     0.0017     4.0001 </r>
       <r>   -10.2600     0.0021     4.0001 </r>
       <r>   -10.2500     0.0026     4.0001 </r>
       <r>   -10.2400     0.0032     4.0002 </r>
       <r>   -10.2300     0.0039     4.0002 </r>
       <r>   -10.2200     0.0048     4.0002 </r>
       <r>   -10.2100     0.0059     4.0003 </r>
       <r>   -10.2000     0.0071     4.0004 </r>
       <r>   -10.1900     0.0086     4.0005 </r>
       <r>   -10.1800     0.0103     4.0006 </r>
       <r>   -10.1700     0.0124     4.0007 </r>
       <r>   -10.1600     0.0147     4.0008 </r>
       <r>   -10.1500     0.0174     4.0010 </r>
       <r>   -10.1400     0.0205     4.0012 </r>
       <r>   -10.1300     0.0241     4.0015 </r>
       <r>   -10.1200     0.0282     4.0017 </r>
       <r>   -10.1100     0.0327     4.0021 </r>
       <r>   -10.1000     0.0379     4.0024 </r>
       <r>   -10.0900     0.0436     4.0029 </r>
       <r>   -10.0800     0.0499     4.0034 </r>
       <r>   -10.0700     0.0570     4.0039 </r>
       <r>   -10.0600     0.0647     4.0046 </r>
       <r>   -10.0500     0.0731     4.0053 </r>
       <r>   -10.0400     0.0823     4.0061 </r>
       <r>   -10.0300     0.0923     4.0071 </r>
       <r>   -10.0200     0.1030     4.0081 </r>
       <r>   -10.0100     0.1144     4.0092 </r>
       <r>   -10.0000     0.1267     4.0105 </r>
       <r>    -9.9900     0.1396     4.0119 </r>
       <r>    -9.9800     0.1534     4.0134 </r>
       <r>    -9.9700     0.1678     4.0151 </r>
       <r>    -9.9600     0.1830     4.0169 </r>
       <r>    -9.9500     0.1989     4.0189 </r>
       <r>    -9.9400     0.2156     4.0211 </r>
       <r>    -9.9300     0.2329     4.0234 </r>
       <r>    -9.9200     0.2510     4.0259 </r>
       <r>    -9.9100     0.2698     4.0286 </r>
       <r>    -9.9000     0.2894     4.0315 </r>
       <r>    -9.8900     0.3099     4.0346 </r>
       <r>    -9.8800     0.3313     4.0379 </r>
       <r>    -9.8700     0.3537     4.0415 </r>
       <r>    -9.8600     0.3772     4.0452 </r>
       <r>    -9.8500     0.4020     4.0493 </r>
       <r>    -9.8400     0.4282     4.0535 </r>
       <r>    -9.8300     0.4561     4.0581 </r>
       <r>    -9.8200     0.4857     4.0630 </r>
       <r>    -9.8100     0.5173     4.0681 </r>
       <r>    -9.8000     0.5511     4.0736 </r>
       <r>    -9.7900     0.5874     4.0795 </r>
       <r>    -9.7800     0.6264     4.0858 </r>
       <r>    -9.7700     0.6682     4.0925 </r>
       <r>    -9.7600     0.7130     4.0996 </r>
       <r>    -9.7500     0.7611     4.1072 </r>
       <r>    -9.7400     0.8126     4.1153 </r>
       <r>    -9.7300     0.8675     4.1240 </r>
       <r>    -9.7200     0.9259     4.1333 </r>
       <r>    -9.7100     0.9877     4.1431 </r>
       <r>    -9.7000     1.0530     4.1537 </r>
       <r>    -9.6900     1.1215     4.1649 </r>
       <r>    -9.6800     1.1930     4.1768 </r>
       <r>    -9.6700     1.2673     4.1895 </r>
       <r>    -9.6600     1.3441     4.2029 </r>
       <r>    -9.6500     1.4228     4.2172 </r>
       <r>    -9.6400     1.5030     4.2322 </r>
       <r>    -9.6300     1.5842     4.2480 </r>
       <r>    -9.6200     1.6658     4.2647 </r>
       <r>    -9.6100     1.7471     4.2822 </r>
       <r>    -9.6000     1.8276     4.3004 </r>
       <r>    -9.5900     1.9064     4.3195 </r>
       <r>    -9.5800     1.9830     4.3393 </r>
       <r>    -9.5700     2.0567     4.3599 </r>
       <r>    -9.5600     2.1269     4.3812 </r>
       <r>    -9.5500     2.1929     4.4031 </r>
       <r>    -9.5400     2.2543     4.4256 </r>
       <r>    -9.5300     2.3106     4.4488 </r>
       <r>    -9.5200     2.3615     4.4724 </r>
       <r>    -9.5100     2.4066     4.4964 </r>
       <r>    -9.5000     2.4458     4.5209 </r>
       <r>    -9.4900     2.4791     4.5457 </r>
       <r>    -9.4800     2.5064     4.5707 </r>
       <r>    -9.4700     2.5281     4.5960 </r>
       <r>    -9.4600     2.5443     4.6215 </r>
       <r>    -9.4500     2.5554     4.6470 </r>
       <r>    -9.4400     2.5620     4.6726 </r>
       <r>    -9.4300     2.5647     4.6983 </r>
       <r>    -9.4200     2.5641     4.7239 </r>
       <r>    -9.4100     2.5610     4.7495 </r>
       <r>    -9.4000     2.5563     4.7751 </r>
       <r>    -9.3900     2.5507     4.8006 </r>
       <r>    -9.3800     2.5452     4.8261 </r>
       <r>    -9.3700     2.5407     4.8515 </r>
       <r>    -9.3600     2.5381     4.8768 </r>
       <r>    -9.3500     2.5381     4.9022 </r>
       <r>    -9.3400     2.5417     4.9276 </r>
       <r>    -9.3300     2.5495     4.9531 </r>
       <r>    -9.3200     2.5622     4.9788 </r>
       <r>    -9.3100     2.5803     5.0046 </r>
       <r>    -9.3000     2.6044     5.0306 </r>
       <r>    -9.2900     2.6348     5.0570 </r>
       <r>    -9.2800     2.6715     5.0837 </r>
       <r>    -9.2700     2.7148     5.1108 </r>
       <r>    -9.2600     2.7646     5.1385 </r>
       <r>    -9.2500     2.8207     5.1667 </r>
       <r>    -9.2400     2.8826     5.1955 </r>
       <r>    -9.2300     2.9501     5.2250 </r>
       <r>    -9.2200     3.0224     5.2552 </r>
       <r>    -9.2100     3.0990     5.2862 </r>
       <r>    -9.2000     3.1790     5.3180 </r>
       <r>    -9.1900     3.2616     5.3506 </r>
       <r>    -9.1800     3.3457     5.3841 </r>
       <r>    -9.1700     3.4305     5.4184 </r>
       <r>    -9.1600     3.5149     5.4535 </r>
       <r>    -9.1500     3.5978     5.4895 </r>
       <r>    -9.1400     3.6782     5.5263 </r>
       <r>    -9.1300     3.7549     5.5638 </r>
       <r>    -9.1200     3.8271     5.6021 </r>
       <r>    -9.1100     3.8937     5.6411 </r>
       <r>    -9.1000     3.9538     5.6806 </r>
       <r>    -9.0900     4.0064     5.7207 </r>
       <r>    -9.0800     4.0509     5.7612 </r>
       <r>    -9.0700     4.0866     5.8020 </r>
       <r>    -9.0600     4.1127     5.8432 </r>
       <r>    -9.0500     4.1288     5.8844 </r>
       <r>    -9.0400     4.1345     5.9258 </r>
       <r>    -9.0300     4.1295     5.9671 </r>
       <r>    -9.0200     4.1135     6.0082 </r>
       <r>    -9.0100     4.0865     6.0491 </r>
       <r>    -9.0000     4.0486     6.0896 </r>
       <r>    -8.9900     3.9998     6.1296 </r>
       <r>    -8.9800     3.9403     6.1690 </r>
       <r>    -8.9700     3.8706     6.2077 </r>
       <r>    -8.9600     3.7910     6.2456 </r>
       <r>    -8.9500     3.7020     6.2826 </r>
       <r>    -8.9400     3.6044     6.3186 </r>
       <r>    -8.9300     3.4987     6.3536 </r>
       <r>    -8.9200     3.3858     6.3875 </r>
       <r>    -8.9100     3.2665     6.4202 </r>
       <r>    -8.9000     3.1416     6.4516 </r>
       <r>    -8.8900     3.0121     6.4817 </r>
       <r>    -8.8800     2.8790     6.5105 </r>
       <r>    -8.8700     2.7432     6.5379 </r>
       <r>    -8.8600     2.6057     6.5640 </r>
       <r>    -8.8500     2.4675     6.5886 </r>
       <r>    -8.8400     2.3296     6.6119 </r>
       <r>    -8.8300     2.1929     6.6339 </r>
       <r>    -8.8200     2.0584     6.6545 </r>
       <r>    -8.8100     1.9269     6.6737 </r>
       <r>    -8.8000     1.7992     6.6917 </r>
       <r>    -8.7900     1.6761     6.7085 </r>
       <r>    -8.7800     1.5582     6.7241 </r>
       <r>    -8.7700     1.4462     6.7385 </r>
       <r>    -8.7600     1.3404     6.7519 </r>
       <r>    -8.7500     1.2415     6.7643 </r>
       <r>    -8.7400     1.1495     6.7758 </r>
       <r>    -8.7300     1.0649     6.7865 </r>
       <r>    -8.7200     0.9877     6.7964 </r>
       <r>    -8.7100     0.9180     6.8055 </r>
       <r>    -8.7000     0.8556     6.8141 </r>
       <r>    -8.6900     0.8006     6.8221 </r>
       <r>    -8.6800     0.7526     6.8296 </r>
       <r>    -8.6700     0.7114     6.8367 </r>
       <r>    -8.6600     0.6767     6.8435 </r>
       <r>    -8.6500     0.6481     6.8500 </r>
       <r>    -8.6400     0.6251     6.8562 </r>
       <r>    -8.6300     0.6072     6.8623 </r>
       <r>    -8.6200     0.5939     6.8683 </r>
       <r>    -8.6100     0.5848     6.8741 </r>
       <r>    -8.6000     0.5793     6.8799 </r>
       <r>    -8.5900     0.5768     6.8857 </r>
       <r>    -8.5800     0.5770     6.8914 </r>
       <r>    -8.5700     0.5793     6.8972 </r>
       <r>    -8.5600     0.5832     6.9031 </r>
       <r>    -8.5500     0.5885     6.9089 </r>
       <r>    -8.5400     0.5948     6.9149 </r>
       <r>    -8.5300     0.6017     6.9209 </r>
       <r>    -8.5200     0.6091     6.9270 </r>
       <r>    -8.5100     0.6170     6.9332 </r>
       <r>    -8.5000     0.6251     6.9394 </r>
       <r>    -8.4900     0.6335     6.9458 </r>
       <r>    -8.4800     0.6423     6.9522 </r>
       <r>    -8.4700     0.6516     6.9587 </r>
       <r>    -8.4600     0.6617     6.9653 </r>
       <r>    -8.4500     0.6729     6.9720 </r>
       <r>    -8.4400     0.6854     6.9789 </r>
       <r>    -8.4300     0.6998     6.9859 </r>
       <r>    -8.4200     0.7163     6.9931 </r>
       <r>    -8.4100     0.7355     7.0004 </r>
       <r>    -8.4000     0.7579     7.0080 </r>
       <r>    -8.3900     0.7838     7.0158 </r>
       <r>    -8.3800     0.8138     7.0240 </r>
       <r>    -8.3700     0.8483     7.0324 </r>
       <r>    -8.3600     0.8878     7.0413 </r>
       <r>    -8.3500     0.9325     7.0506 </r>
       <r>    -8.3400     0.9830     7.0605 </r>
       <r>    -8.3300     1.0393     7.0709 </r>
       <r>    -8.3200     1.1017     7.0819 </r>
       <r>    -8.3100     1.1704     7.0936 </r>
       <r>    -8.3000     1.2454     7.1060 </r>
       <r>    -8.2900     1.3266     7.1193 </r>
       <r>    -8.2800     1.4140     7.1335 </r>
       <r>    -8.2700     1.5073     7.1485 </r>
       <r>    -8.2600     1.6063     7.1646 </r>
       <r>    -8.2500     1.7107     7.1817 </r>
       <r>    -8.2400     1.8199     7.1999 </r>
       <r>    -8.2300     1.9334     7.2192 </r>
       <r>    -8.2200     2.0508     7.2397 </r>
       <r>    -8.2100     2.1714     7.2615 </r>
       <r>    -8.2000     2.2944     7.2844 </r>
       <r>    -8.1900     2.4193     7.3086 </r>
       <r>    -8.1800     2.5453     7.3340 </r>
       <r>    -8.1700     2.6715     7.3608 </r>
       <r>    -8.1600     2.7973     7.3887 </r>
       <r>    -8.1500     2.9217     7.4179 </r>
       <r>    -8.1400     3.0441     7.4484 </r>
       <r>    -8.1300     3.1636     7.4800 </r>
       <r>    -8.1200     3.2794     7.5128 </r>
       <r>    -8.1100     3.3908     7.5467 </r>
       <r>    -8.1000     3.4971     7.5817 </r>
       <r>    -8.0900     3.5976     7.6177 </r>
       <r>    -8.0800     3.6917     7.6546 </r>
       <r>    -8.0700     3.7787     7.6924 </r>
       <r>    -8.0600     3.8581     7.7310 </r>
       <r>    -8.0500     3.9294     7.7703 </r>
       <r>    -8.0400     3.9923     7.8102 </r>
       <r>    -8.0300     4.0463     7.8506 </r>
       <r>    -8.0200     4.0913     7.8915 </r>
       <r>    -8.0100     4.1270     7.9328 </r>
       <r>    -8.0000     4.1534     7.9744 </r>
       <r>    -7.9900     4.1703     8.0161 </r>
       <r>    -7.9800     4.1780     8.0578 </r>
       <r>    -7.9700     4.1765     8.0996 </r>
       <r>    -7.9600     4.1661     8.1413 </r>
       <r>    -7.9500     4.1471     8.1827 </r>
       <r>    -7.9400     4.1199     8.2239 </r>
       <r>    -7.9300     4.0850     8.2648 </r>
       <r>    -7.9200     4.0428     8.3052 </r>
       <r>    -7.9100     3.9940     8.3452 </r>
       <r>    -7.9000     3.9392     8.3845 </r>
       <r>    -7.8900     3.8789     8.4233 </r>
       <r>    -7.8800     3.8138     8.4615 </r>
       <r>    -7.8700     3.7447     8.4989 </r>
       <r>    -7.8600     3.6721     8.5356 </r>
       <r>    -7.8500     3.5966     8.5716 </r>
       <r>    -7.8400     3.5190     8.6068 </r>
       <r>    -7.8300     3.4396     8.6412 </r>
       <r>    -7.8200     3.3591     8.6748 </r>
       <r>    -7.8100     3.2779     8.7076 </r>
       <r>    -7.8000     3.1963     8.7395 </r>
       <r>    -7.7900     3.1149     8.7707 </r>
       <r>    -7.7800     3.0337     8.8010 </r>
       <r>    -7.7700     2.9530     8.8305 </r>
       <r>    -7.7600     2.8731     8.8593 </r>
       <r>    -7.7500     2.7940     8.8872 </r>
       <r>    -7.7400     2.7159     8.9144 </r>
       <r>    -7.7300     2.6389     8.9408 </r>
       <r>    -7.7200     2.5629     8.9664 </r>
       <r>    -7.7100     2.4882     8.9913 </r>
       <r>    -7.7000     2.4147     9.0154 </r>
       <r>    -7.6900     2.3427     9.0388 </r>
       <r>    -7.6800     2.2723     9.0616 </r>
       <r>    -7.6700     2.2037     9.0836 </r>
       <r>    -7.6600     2.1371     9.1050 </r>
       <r>    -7.6500     2.0730     9.1257 </r>
       <r>    -7.6400     2.0117     9.1458 </r>
       <r>    -7.6300     1.9538     9.1654 </r>
       <r>    -7.6200     1.8997     9.1844 </r>
       <r>    -7.6100     1.8501     9.2029 </r>
       <r>    -7.6000     1.8057     9.2209 </r>
       <r>    -7.5900     1.7673     9.2386 </r>
       <r>    -7.5800     1.7355     9.2559 </r>
       <r>    -7.5700     1.7112     9.2731 </r>
       <r>    -7.5600     1.6951     9.2900 </r>
       <r>    -7.5500     1.6881     9.3069 </r>
       <r>    -7.5400     1.6908     9.3238 </r>
       <r>    -7.5300     1.7040     9.3408 </r>
       <r>    -7.5200     1.7283     9.3581 </r>
       <r>    -7.5100     1.7641     9.3758 </r>
       <r>    -7.5000     1.8119     9.3939 </r>
       <r>    -7.4900     1.8718     9.4126 </r>
       <r>    -7.4800     1.9440     9.4320 </r>
       <r>    -7.4700     2.0285     9.4523 </r>
       <r>    -7.4600     2.1249     9.4736 </r>
       <r>    -7.4500     2.2328     9.4959 </r>
       <r>    -7.4400     2.3517     9.5194 </r>
       <r>    -7.4300     2.4806     9.5442 </r>
       <r>    -7.4200     2.6186     9.5704 </r>
       <r>    -7.4100     2.7646     9.5981 </r>
       <r>    -7.4000     2.9171     9.6272 </r>
       <r>    -7.3900     3.0747     9.6580 </r>
       <r>    -7.3800     3.2359     9.6903 </r>
       <r>    -7.3700     3.3989     9.7243 </r>
       <r>    -7.3600     3.5619     9.7599 </r>
       <r>    -7.3500     3.7232     9.7972 </r>
       <r>    -7.3400     3.8809     9.8360 </r>
       <r>    -7.3300     4.0333     9.8763 </r>
       <r>    -7.3200     4.1786     9.9181 </r>
       <r>    -7.3100     4.3152     9.9613 </r>
       <r>    -7.3000     4.4415    10.0057 </r>
       <r>    -7.2900     4.5561    10.0512 </r>
       <r>    -7.2800     4.6578    10.0978 </r>
       <r>    -7.2700     4.7455    10.1453 </r>
       <r>    -7.2600     4.8185    10.1934 </r>
       <r>    -7.2500     4.8759    10.2422 </r>
       <r>    -7.2400     4.9174    10.2914 </r>
       <r>    -7.2300     4.9427    10.3408 </r>
       <r>    -7.2200     4.9519    10.3903 </r>
       <r>    -7.2100     4.9451    10.4398 </r>
       <r>    -7.2000     4.9226    10.4890 </r>
       <r>    -7.1900     4.8851    10.5379 </r>
       <r>    -7.1800     4.8331    10.5862 </r>
       <r>    -7.1700     4.7676    10.6339 </r>
       <r>    -7.1600     4.6895    10.6808 </r>
       <r>    -7.1500     4.5998    10.7268 </r>
       <r>    -7.1400     4.4996    10.7717 </r>
       <r>    -7.1300     4.3900    10.8156 </r>
       <r>    -7.1200     4.2723    10.8584 </r>
       <r>    -7.1100     4.1477    10.8999 </r>
       <r>    -7.1000     4.0174    10.9400 </r>
       <r>    -7.0900     3.8824    10.9788 </r>
       <r>    -7.0800     3.7441    11.0163 </r>
       <r>    -7.0700     3.6034    11.0523 </r>
       <r>    -7.0600     3.4615    11.0869 </r>
       <r>    -7.0500     3.3193    11.1201 </r>
       <r>    -7.0400     3.1780    11.1519 </r>
       <r>    -7.0300     3.0382    11.1823 </r>
       <r>    -7.0200     2.9010    11.2113 </r>
       <r>    -7.0100     2.7670    11.2390 </r>
       <r>    -7.0000     2.6371    11.2653 </r>
       <r>    -6.9900     2.5119    11.2905 </r>
       <r>    -6.9800     2.3921    11.3144 </r>
       <r>    -6.9700     2.2782    11.3372 </r>
       <r>    -6.9600     2.1707    11.3589 </r>
       <r>    -6.9500     2.0702    11.3796 </r>
       <r>    -6.9400     1.9768    11.3993 </r>
       <r>    -6.9300     1.8911    11.4183 </r>
       <r>    -6.9200     1.8132    11.4364 </r>
       <r>    -6.9100     1.7434    11.4538 </r>
       <r>    -6.9000     1.6817    11.4706 </r>
       <r>    -6.8900     1.6282    11.4869 </r>
       <r>    -6.8800     1.5829    11.5027 </r>
       <r>    -6.8700     1.5456    11.5182 </r>
       <r>    -6.8600     1.5162    11.5334 </r>
       <r>    -6.8500     1.4944    11.5483 </r>
       <r>    -6.8400     1.4799    11.5631 </r>
       <r>    -6.8300     1.4722    11.5778 </r>
       <r>    -6.8200     1.4709    11.5925 </r>
       <r>    -6.8100     1.4756    11.6073 </r>
       <r>    -6.8000     1.4855    11.6222 </r>
       <r>    -6.7900     1.5000    11.6372 </r>
       <r>    -6.7800     1.5187    11.6523 </r>
       <r>    -6.7700     1.5406    11.6677 </r>
       <r>    -6.7600     1.5652    11.6834 </r>
       <r>    -6.7500     1.5918    11.6993 </r>
       <r>    -6.7400     1.6196    11.7155 </r>
       <r>    -6.7300     1.6481    11.7320 </r>
       <r>    -6.7200     1.6764    11.7488 </r>
       <r>    -6.7100     1.7040    11.7658 </r>
       <r>    -6.7000     1.7304    11.7831 </r>
       <r>    -6.6900     1.7548    11.8006 </r>
       <r>    -6.6800     1.7769    11.8184 </r>
       <r>    -6.6700     1.7963    11.8364 </r>
       <r>    -6.6600     1.8124    11.8545 </r>
       <r>    -6.6500     1.8250    11.8728 </r>
       <r>    -6.6400     1.8337    11.8911 </r>
       <r>    -6.6300     1.8385    11.9095 </r>
       <r>    -6.6200     1.8391    11.9279 </r>
       <r>    -6.6100     1.8354    11.9462 </r>
       <r>    -6.6000     1.8273    11.9645 </r>
       <r>    -6.5900     1.8150    11.9826 </r>
       <r>    -6.5800     1.7984    12.0006 </r>
       <r>    -6.5700     1.7778    12.0184 </r>
       <r>    -6.5600     1.7532    12.0359 </r>
       <r>    -6.5500     1.7249    12.0532 </r>
       <r>    -6.5400     1.6932    12.0701 </r>
       <r>    -6.5300     1.6583    12.0867 </r>
       <r>    -6.5200     1.6207    12.1029 </r>
       <r>    -6.5100     1.5808    12.1187 </r>
       <r>    -6.5000     1.5390    12.1341 </r>
       <r>    -6.4900     1.4957    12.1491 </r>
       <r>    -6.4800     1.4516    12.1636 </r>
       <r>    -6.4700     1.4071    12.1777 </r>
       <r>    -6.4600     1.3628    12.1913 </r>
       <r>    -6.4500     1.3194    12.2045 </r>
       <r>    -6.4400     1.2775    12.2172 </r>
       <r>    -6.4300     1.2378    12.2296 </r>
       <r>    -6.4200     1.2009    12.2416 </r>
       <r>    -6.4100     1.1674    12.2533 </r>
       <r>    -6.4000     1.1382    12.2647 </r>
       <r>    -6.3900     1.1139    12.2758 </r>
       <r>    -6.3800     1.0951    12.2868 </r>
       <r>    -6.3700     1.0825    12.2976 </r>
       <r>    -6.3600     1.0768    12.3084 </r>
       <r>    -6.3500     1.0785    12.3192 </r>
       <r>    -6.3400     1.0882    12.3300 </r>
       <r>    -6.3300     1.1064    12.3411 </r>
       <r>    -6.3200     1.1335    12.3524 </r>
       <r>    -6.3100     1.1700    12.3641 </r>
       <r>    -6.3000     1.2160    12.3763 </r>
       <r>    -6.2900     1.2719    12.3890 </r>
       <r>    -6.2800     1.3377    12.4024 </r>
       <r>    -6.2700     1.4135    12.4165 </r>
       <r>    -6.2600     1.4992    12.4315 </r>
       <r>    -6.2500     1.5946    12.4475 </r>
       <r>    -6.2400     1.6994    12.4645 </r>
       <r>    -6.2300     1.8134    12.4826 </r>
       <r>    -6.2200     1.9359    12.5020 </r>
       <r>    -6.2100     2.0664    12.5226 </r>
       <r>    -6.2000     2.2042    12.5447 </r>
       <r>    -6.1900     2.3486    12.5681 </r>
       <r>    -6.1800     2.4986    12.5931 </r>
       <r>    -6.1700     2.6533    12.6197 </r>
       <r>    -6.1600     2.8118    12.6478 </r>
       <r>    -6.1500     2.9729    12.6775 </r>
       <r>    -6.1400     3.1356    12.7089 </r>
       <r>    -6.1300     3.2988    12.7419 </r>
       <r>    -6.1200     3.4612    12.7765 </r>
       <r>    -6.1100     3.6216    12.8127 </r>
       <r>    -6.1000     3.7790    12.8505 </r>
       <r>    -6.0900     3.9322    12.8898 </r>
       <r>    -6.0800     4.0801    12.9306 </r>
       <r>    -6.0700     4.2215    12.9728 </r>
       <r>    -6.0600     4.3554    13.0164 </r>
       <r>    -6.0500     4.4809    13.0612 </r>
       <r>    -6.0400     4.5971    13.1071 </r>
       <r>    -6.0300     4.7030    13.1542 </r>
       <r>    -6.0200     4.7981    13.2022 </r>
       <r>    -6.0100     4.8816    13.2510 </r>
       <r>    -6.0000     4.9529    13.3005 </r>
       <r>    -5.9900     5.0115    13.3506 </r>
       <r>    -5.9800     5.0572    13.4012 </r>
       <r>    -5.9700     5.0896    13.4521 </r>
       <r>    -5.9600     5.1085    13.5032 </r>
       <r>    -5.9500     5.1138    13.5543 </r>
       <r>    -5.9400     5.1057    13.6054 </r>
       <r>    -5.9300     5.0841    13.6562 </r>
       <r>    -5.9200     5.0494    13.7067 </r>
       <r>    -5.9100     5.0019    13.7567 </r>
       <r>    -5.9000     4.9419    13.8061 </r>
       <r>    -5.8900     4.8700    13.8548 </r>
       <r>    -5.8800     4.7868    13.9027 </r>
       <r>    -5.8700     4.6929    13.9496 </r>
       <r>    -5.8600     4.5892    13.9955 </r>
       <r>    -5.8500     4.4764    14.0403 </r>
       <r>    -5.8400     4.3554    14.0838 </r>
       <r>    -5.8300     4.2272    14.1261 </r>
       <r>    -5.8200     4.0928    14.1670 </r>
       <r>    -5.8100     3.9533    14.2066 </r>
       <r>    -5.8000     3.8096    14.2447 </r>
       <r>    -5.7900     3.6630    14.2813 </r>
       <r>    -5.7800     3.5145    14.3164 </r>
       <r>    -5.7700     3.3653    14.3501 </r>
       <r>    -5.7600     3.2164    14.3823 </r>
       <r>    -5.7500     3.0690    14.4130 </r>
       <r>    -5.7400     2.9242    14.4422 </r>
       <r>    -5.7300     2.7830    14.4700 </r>
       <r>    -5.7200     2.6464    14.4965 </r>
       <r>    -5.7100     2.5154    14.5216 </r>
       <r>    -5.7000     2.3907    14.5456 </r>
       <r>    -5.6900     2.2733    14.5683 </r>
       <r>    -5.6800     2.1638    14.5899 </r>
       <r>    -5.6700     2.0630    14.6106 </r>
       <r>    -5.6600     1.9712    14.6303 </r>
       <r>    -5.6500     1.8890    14.6492 </r>
       <r>    -5.6400     1.8167    14.6673 </r>
       <r>    -5.6300     1.7546    14.6849 </r>
       <r>    -5.6200     1.7028    14.7019 </r>
       <r>    -5.6100     1.6612    14.7185 </r>
       <r>    -5.6000     1.6299    14.7348 </r>
       <r>    -5.5900     1.6086    14.7509 </r>
       <r>    -5.5800     1.5970    14.7669 </r>
       <r>    -5.5700     1.5947    14.7828 </r>
       <r>    -5.5600     1.6012    14.7988 </r>
       <r>    -5.5500     1.6158    14.8150 </r>
       <r>    -5.5400     1.6379    14.8314 </r>
       <r>    -5.5300     1.6667    14.8480 </r>
       <r>    -5.5200     1.7015    14.8650 </r>
       <r>    -5.5100     1.7412    14.8825 </r>
       <r>    -5.5000     1.7850    14.9003 </r>
       <r>    -5.4900     1.8320    14.9186 </r>
       <r>    -5.4800     1.8811    14.9374 </r>
       <r>    -5.4700     1.9315    14.9568 </r>
       <r>    -5.4600     1.9822    14.9766 </r>
       <r>    -5.4500     2.0324    14.9969 </r>
       <r>    -5.4400     2.0811    15.0177 </r>
       <r>    -5.4300     2.1277    15.0390 </r>
       <r>    -5.4200     2.1715    15.0607 </r>
       <r>    -5.4100     2.2119    15.0828 </r>
       <r>    -5.4000     2.2484    15.1053 </r>
       <r>    -5.3900     2.2807    15.1281 </r>
       <r>    -5.3800     2.3084    15.1512 </r>
       <r>    -5.3700     2.3316    15.1745 </r>
       <r>    -5.3600     2.3502    15.1980 </r>
       <r>    -5.3500     2.3643    15.2217 </r>
       <r>    -5.3400     2.3741    15.2454 </r>
       <r>    -5.3300     2.3800    15.2692 </r>
       <r>    -5.3200     2.3824    15.2930 </r>
       <r>    -5.3100     2.3817    15.3168 </r>
       <r>    -5.3000     2.3785    15.3406 </r>
       <r>    -5.2900     2.3734    15.3644 </r>
       <r>    -5.2800     2.3671    15.3880 </r>
       <r>    -5.2700     2.3601    15.4116 </r>
       <r>    -5.2600     2.3532    15.4352 </r>
       <r>    -5.2500     2.3469    15.4586 </r>
       <r>    -5.2400     2.3419    15.4821 </r>
       <r>    -5.2300     2.3386    15.5054 </r>
       <r>    -5.2200     2.3376    15.5288 </r>
       <r>    -5.2100     2.3392    15.5522 </r>
       <r>    -5.2000     2.3438    15.5756 </r>
       <r>    -5.1900     2.3517    15.5992 </r>
       <r>    -5.1800     2.3628    15.6228 </r>
       <r>    -5.1700     2.3775    15.6466 </r>
       <r>    -5.1600     2.3954    15.6705 </r>
       <r>    -5.1500     2.4167    15.6947 </r>
       <r>    -5.1400     2.4410    15.7191 </r>
       <r>    -5.1300     2.4680    15.7438 </r>
       <r>    -5.1200     2.4974    15.7687 </r>
       <r>    -5.1100     2.5289    15.7940 </r>
       <r>    -5.1000     2.5618    15.8197 </r>
       <r>    -5.0900     2.5958    15.8456 </r>
       <r>    -5.0800     2.6302    15.8719 </r>
       <r>    -5.0700     2.6646    15.8986 </r>
       <r>    -5.0600     2.6984    15.9255 </r>
       <r>    -5.0500     2.7311    15.9529 </r>
       <r>    -5.0400     2.7622    15.9805 </r>
       <r>    -5.0300     2.7912    16.0084 </r>
       <r>    -5.0200     2.8176    16.0366 </r>
       <r>    -5.0100     2.8411    16.0650 </r>
       <r>    -5.0000     2.8615    16.0936 </r>
       <r>    -4.9900     2.8783    16.1224 </r>
       <r>    -4.9800     2.8916    16.1513 </r>
       <r>    -4.9700     2.9012    16.1803 </r>
       <r>    -4.9600     2.9070    16.2094 </r>
       <r>    -4.9500     2.9092    16.2385 </r>
       <r>    -4.9400     2.9078    16.2675 </r>
       <r>    -4.9300     2.9032    16.2966 </r>
       <r>    -4.9200     2.8956    16.3255 </r>
       <r>    -4.9100     2.8853    16.3544 </r>
       <r>    -4.9000     2.8728    16.3831 </r>
       <r>    -4.8900     2.8585    16.4117 </r>
       <r>    -4.8800     2.8429    16.4401 </r>
       <r>    -4.8700     2.8264    16.4684 </r>
       <r>    -4.8600     2.8096    16.4965 </r>
       <r>    -4.8500     2.7930    16.5244 </r>
       <r>    -4.8400     2.7770    16.5522 </r>
       <r>    -4.8300     2.7621    16.5798 </r>
       <r>    -4.8200     2.7486    16.6073 </r>
       <r>    -4.8100     2.7368    16.6347 </r>
       <r>    -4.8000     2.7271    16.6619 </r>
       <r>    -4.7900     2.7195    16.6891 </r>
       <r>    -4.7800     2.7141    16.7163 </r>
       <r>    -4.7700     2.7108    16.7434 </r>
       <r>    -4.7600     2.7096    16.7705 </r>
       <r>    -4.7500     2.7102    16.7976 </r>
       <r>    -4.7400     2.7122    16.8247 </r>
       <r>    -4.7300     2.7153    16.8519 </r>
       <r>    -4.7200     2.7189    16.8790 </r>
       <r>    -4.7100     2.7225    16.9063 </r>
       <r>    -4.7000     2.7255    16.9335 </r>
       <r>    -4.6900     2.7271    16.9608 </r>
       <r>    -4.6800     2.7267    16.9881 </r>
       <r>    -4.6700     2.7237    17.0153 </r>
       <r>    -4.6600     2.7174    17.0425 </r>
       <r>    -4.6500     2.7072    17.0695 </r>
       <r>    -4.6400     2.6925    17.0965 </r>
       <r>    -4.6300     2.6730    17.1232 </r>
       <r>    -4.6200     2.6483    17.1497 </r>
       <r>    -4.6100     2.6181    17.1759 </r>
       <r>    -4.6000     2.5824    17.2017 </r>
       <r>    -4.5900     2.5411    17.2271 </r>
       <r>    -4.5800     2.4943    17.2520 </r>
       <r>    -4.5700     2.4425    17.2765 </r>
       <r>    -4.5600     2.3859    17.3003 </r>
       <r>    -4.5500     2.3251    17.3236 </r>
       <r>    -4.5400     2.2607    17.3462 </r>
       <r>    -4.5300     2.1935    17.3681 </r>
       <r>    -4.5200     2.1242    17.3894 </r>
       <r>    -4.5100     2.0536    17.4099 </r>
       <r>    -4.5000     1.9826    17.4297 </r>
       <r>    -4.4900     1.9120    17.4488 </r>
       <r>    -4.4800     1.8428    17.4673 </r>
       <r>    -4.4700     1.7756    17.4850 </r>
       <r>    -4.4600     1.7113    17.5021 </r>
       <r>    -4.4500     1.6505    17.5186 </r>
       <r>    -4.4400     1.5937    17.5346 </r>
       <r>    -4.4300     1.5414    17.5500 </r>
       <r>    -4.4200     1.4940    17.5649 </r>
       <r>    -4.4100     1.4516    17.5794 </r>
       <r>    -4.4000     1.4143    17.5936 </r>
       <r>    -4.3900     1.3820    17.6074 </r>
       <r>    -4.3800     1.3546    17.6210 </r>
       <r>    -4.3700     1.3319    17.6343 </r>
       <r>    -4.3600     1.3133    17.6474 </r>
       <r>    -4.3500     1.2984    17.6604 </r>
       <r>    -4.3400     1.2867    17.6733 </r>
       <r>    -4.3300     1.2775    17.6860 </r>
       <r>    -4.3200     1.2701    17.6987 </r>
       <r>    -4.3100     1.2640    17.7114 </r>
       <r>    -4.3000     1.2584    17.7240 </r>
       <r>    -4.2900     1.2526    17.7365 </r>
       <r>    -4.2800     1.2461    17.7489 </r>
       <r>    -4.2700     1.2381    17.7613 </r>
       <r>    -4.2600     1.2283    17.7736 </r>
       <r>    -4.2500     1.2162    17.7858 </r>
       <r>    -4.2400     1.2014    17.7978 </r>
       <r>    -4.2300     1.1836    17.8096 </r>
       <r>    -4.2200     1.1627    17.8212 </r>
       <r>    -4.2100     1.1384    17.8326 </r>
       <r>    -4.2000     1.1109    17.8437 </r>
       <r>    -4.1900     1.0802    17.8545 </r>
       <r>    -4.1800     1.0464    17.8650 </r>
       <r>    -4.1700     1.0097    17.8751 </r>
       <r>    -4.1600     0.9705    17.8848 </r>
       <r>    -4.1500     0.9290    17.8941 </r>
       <r>    -4.1400     0.8857    17.9030 </r>
       <r>    -4.1300     0.8408    17.9114 </r>
       <r>    -4.1200     0.7949    17.9193 </r>
       <r>    -4.1100     0.7482    17.9268 </r>
       <r>    -4.1000     0.7013    17.9338 </r>
       <r>    -4.0900     0.6545    17.9404 </r>
       <r>    -4.0800     0.6083    17.9464 </r>
       <r>    -4.0700     0.5628    17.9521 </r>
       <r>    -4.0600     0.5186    17.9573 </r>
       <r>    -4.0500     0.4757    17.9620 </r>
       <r>    -4.0400     0.4346    17.9664 </r>
       <r>    -4.0300     0.3953    17.9703 </r>
       <r>    -4.0200     0.3581    17.9739 </r>
       <r>    -4.0100     0.3229    17.9771 </r>
       <r>    -4.0000     0.2901    17.9800 </r>
       <r>    -3.9900     0.2594    17.9826 </r>
       <r>    -3.9800     0.2311    17.9849 </r>
       <r>    -3.9700     0.2050    17.9870 </r>
       <r>    -3.9600     0.1811    17.9888 </r>
       <r>    -3.9500     0.1593    17.9904 </r>
       <r>    -3.9400     0.1396    17.9918 </r>
       <r>    -3.9300     0.1218    17.9930 </r>
       <r>    -3.9200     0.1059    17.9941 </r>
       <r>    -3.9100     0.0917    17.9950 </r>
       <r>    -3.9000     0.0791    17.9958 </r>
       <r>    -3.8900     0.0679    17.9964 </r>
       <r>    -3.8800     0.0581    17.9970 </r>
       <r>    -3.8700     0.0495    17.9975 </r>
       <r>    -3.8600     0.0420    17.9979 </r>
       <r>    -3.8500     0.0355    17.9983 </r>
       <r>    -3.8400     0.0299    17.9986 </r>
       <r>    -3.8300     0.0251    17.9988 </r>
       <r>    -3.8200     0.0210    17.9990 </r>
       <r>    -3.8100     0.0175    17.9992 </r>
       <r>    -3.8000     0.0145    17.9994 </r>
       <r>    -3.7900     0.0120    17.9995 </r>
       <r>    -3.7800     0.0099    17.9996 </r>
       <r>    -3.7700     0.0081    17.9997 </r>
       <r>    -3.7600     0.0066    17.9997 </r>
       <r>    -3.7500     0.0054    17.9998 </r>
       <r>    -3.7400     0.0044    17.9998 </r>
       <r>    -3.7300     0.0035    17.9999 </r>
       <r>    -3.7200     0.0028    17.9999 </r>
       <r>    -3.7100     0.0023    17.9999 </r>
       <r>    -3.7000     0.0018    17.9999 </r>
       <r>    -3.6900     0.0014    17.9999 </r>
       <r>    -3.6800     0.0011    18.0000 </r>
       <r>    -3.6700     0.0009    18.0000 </r>
       <r>    -3.6600     0.0007    18.0000 </r>
       <r>    -3.6500     0.0005    18.0000 </r>
       <r>    -3.6400     0.0004    18.0000 </r>
       <r>    -3.6300     0.0003    18.0000 </r>
       <r>    -3.6200     0.0003    18.0000 </r>
       <r>    -3.6100     0.0002    18.0000 </r>
       <r>    -3.6000     0.0001    18.0000 </r>
       <r>    -3.5900     0.0001    18.0000 </r>
       <r>    -3.5800     0.0001    18.0000 </r>
       <r>    -3.5700     0.0001    18.0000 </r>
       <r>    -3.5600     0.0000    18.0000 </r>
       <r>    -3.5500     0.0000    18.0000 </r>
       <r>    -3.5400     0.0000    18.0000 </r>
       <r>    -3.5300     0.0000    18.0000 </r>
       <r>    -3.5200     0.0000    18.0000 </r>
       <r>    -3.5100     0.0000    18.0000 </r>
       <r>    -3.5000     0.0000    18.0000 </r>
       <r>    -3.4900     0.0000    18.0000 </r>
       <r>    -3.4800     0.0000    18.0000 </r>
       <r>    -3.4700     0.0000    18.0000 </r>
       <r>    -3.4600     0.0000    18.0000 </r>
       <r>    -3.4500     0.0000    18.0000 </r>
       <r>    -3.4400     0.0000    18.0000 </r>
       <r>    -3.4300     0.0000    18.0000 </r>
       <r>    -3.4200     0.0000    18.0000 </r>
       <r>    -3.4100     0.0000    18.0000 </r>
       <r>    -3.4000     0.0000    18.0000 </r>
       <r>    -3.3900     0.0000    18.0000 </r>
       <r>    -3.3800     0.0000    18.0000 </r>
       <r>    -3.3700     0.0000    18.0000 </r>
       <r>    -3.3600     0.0000    18.0000 </r>
       <r>    -3.3500     0.0000    18.0000 </r>
       <r>    -3.3400     0.0000    18.0000 </r>
       <r>    -3.3300     0.0000    18.0000 </r>
       <r>    -3.3200     0.0000    18.0000 </r>
       <r>    -3.3100     0.0000    18.0000 </r>
       <r>    -3.3000     0.0000    18.0000 </r>
       <r>    -3.2900     0.0000    18.0000 </r>
       <r>    -3.2800     0.0000    18.0000 </r>
       <r>    -3.2700     0.0000    18.0000 </r>
       <r>    -3.2600     0.0000    18.0000 </r>
       <r>    -3.2500     0.0000    18.0000 </r>
       <r>    -3.2400     0.0000    18.0000 </r>
       <r>    -3.2300     0.0000    18.0000 </r>
       <r>    -3.2200     0.0000    18.0000 </r>
       <r>    -3.2100     0.0000    18.0000 </r>
       <r>    -3.2000     0.0000    18.0000 </r>
       <r>    -3.1900     0.0000    18.0000 </r>
       <r>    -3.1800     0.0000    18.0000 </r>
       <r>    -3.1700     0.0000    18.0000 </r>
       <r>    -3.1600     0.0000    18.0000 </r>
       <r>    -3.1500     0.0000    18.0000 </r>
       <r>    -3.1400     0.0000    18.0000 </r>
       <r>    -3.1300     0.0000    18.0000 </r>
       <r>    -3.1200     0.0000    18.0000 </r>
       <r>    -3.1100     0.0000    18.0000 </r>
       <r>    -3.1000     0.0000    18.0000 </r>
       <r>    -3.0900     0.0000    18.0000 </r>
       <r>    -3.0800     0.0000    18.0000 </r>
       <r>    -3.0700     0.0000    18.0000 </r>
       <r>    -3.0600     0.0000    18.0000 </r>
       <r>    -3.0500     0.0000    18.0000 </r>
       <r>    -3.0400     0.0000    18.0000 </r>
       <r>    -3.0300     0.0000    18.0000 </r>
       <r>    -3.0200     0.0000    18.0000 </r>
       <r>    -3.0100     0.0000    18.0000 </r>
       <r>    -3.0000     0.0000    18.0000 </r>
       <r>    -2.9900     0.0000    18.0000 </r>
       <r>    -2.9800     0.0000    18.0000 </r>
       <r>    -2.9700     0.0000    18.0000 </r>
       <r>    -2.9600     0.0000    18.0000 </r>
       <r>    -2.9500     0.0000    18.0000 </r>
       <r>    -2.9400     0.0000    18.0000 </r>
       <r>    -2.9300     0.0000    18.0000 </r>
       <r>    -2.9200     0.0000    18.0000 </r>
       <r>    -2.9100     0.0000    18.0000 </r>
       <r>    -2.9000     0.0000    18.0000 </r>
       <r>    -2.8900     0.0001    18.0000 </r>
       <r>    -2.8800     0.0001    18.0000 </r>
       <r>    -2.8700     0.0001    18.0000 </r>
       <r>    -2.8600     0.0002    18.0000 </r>
       <r>    -2.8500     0.0002    18.0000 </r>
       <r>    -2.8400     0.0003    18.0000 </r>
       <r>    -2.8300     0.0004    18.0000 </r>
       <r>    -2.8200     0.0005    18.0000 </r>
       <r>    -2.8100     0.0006    18.0000 </r>
       <r>    -2.8000     0.0008    18.0000 </r>
       <r>    -2.7900     0.0010    18.0000 </r>
       <r>    -2.7800     0.0013    18.0001 </r>
       <r>    -2.7700     0.0017    18.0001 </r>
       <r>    -2.7600     0.0022    18.0001 </r>
       <r>    -2.7500     0.0027    18.0001 </r>
       <r>    -2.7400     0.0034    18.0002 </r>
       <r>    -2.7300     0.0043    18.0002 </r>
       <r>    -2.7200     0.0053    18.0003 </r>
       <r>    -2.7100     0.0066    18.0003 </r>
       <r>    -2.7000     0.0082    18.0004 </r>
       <r>    -2.6900     0.0100    18.0005 </r>
       <r>    -2.6800     0.0122    18.0006 </r>
       <r>    -2.6700     0.0148    18.0008 </r>
       <r>    -2.6600     0.0179    18.0010 </r>
       <r>    -2.6500     0.0216    18.0012 </r>
       <r>    -2.6400     0.0258    18.0014 </r>
       <r>    -2.6300     0.0308    18.0017 </r>
       <r>    -2.6200     0.0365    18.0021 </r>
       <r>    -2.6100     0.0432    18.0025 </r>
       <r>    -2.6000     0.0507    18.0030 </r>
[...]
        <r>  0.0072  0.0713  0.0134  0.0405  0.0000  0.0000  0.0000  0.0000  0.0000 </r>
        <r>  0.0072  0.0713  0.0134  0.0405  0.0000  0.0000  0.0000  0.0000  0.0000 </r>
       </set>
       <set comment="band 11">
        <r>  0.0059  0.0061  0.0000  0.0055  0.2851  0.0000  0.0990  0.0000  0.1012 </r>
        <r>  0.0007  0.0397  0.0049  0.0956  0.0000  0.0000  0.0000  0.0000  0.0000 </r>
        <r>  0.0007  0.0397  0.0049  0.0956  0.0000  0.0000  0.0000  0.0000  0.0000 </r>
       </set>
       <set comment="band 12">
        <r>  0.0000  0.0000  0.0002  0.0000  0.0000  0.2432  0.0000  0.3035  0.0000 </r>
        <r>  0.0257  0.0395  0.0135  0.0145  0.0000  0.0000  0.0000  0.0000  0.0000 </r>
        <r>  0.0257  0.0395  0.0135  0.0145  0.0000  0.0000  0.0000  0.0000  0.0000 </r>
       </set>
       <set comment="band 13">
        <r>  0.0000  0.0000  0.0027  0.0000  0.0000  0.2525  0.0000  0.1916  0.0000 </r>
        <r>  0.0025  0.0406  0.0086  0.1196  0.0000  0.0000  0.0000  0.0000  0.0000 </r>
        <r>  0.0025  0.0406  0.0086  0.1196  0.0000  0.0000  0.0000  0.0000  0.0000 </r>
       </set>
       <set comment="band 14">
        <r>  0.0076  0.0038  0.0000  0.0018  0.0014  0.0002  0.0209  0.0001  0.0035 </r>
        <r>  0.0061  0.0048  0.0019  0.0015  0.0000  0.0000  0.0000  0.0000  0.0000 </r>
        <r>  0.0080  0.0060  0.0095  0.0023  0.0000  0.0000  0.0000  0.0000  0.0000 </r>
       </set>
      </set>
      <set comment="kpoint 7">
       <set comment="band 1">
        <r>  0.0576  0.0184  0.0000  0.0166  0.0142  0.0000  0.0008  0.0000  0.0116 </r>
        <r>  0.3024  0.0013  0.0053  0.0010  0.0000  0.0000  0.0000  0.0000  0.0000 </r>
        <r>  0.3024  0.0013  0.0053  0.0010  0.0000  0.0000  0.0000  0.0000  0.0000 </r>
       </set>
       <set comment="band 2">
        <r>  0.0000  0.0000  0.0239  0.0000  0.0000  0.0400  0.0000  0.0372  0.0000 </r>
        <r>  0.3250  0.0007  0.0018  0.0006  0.0000  0.0000  0.0000  0.0000  0.0000 </r>
        <r>  0.3250  0.0007  0.0018  0.0006  0.0000  0.0000  0.0000  0.0000  0.0000 </r>
       </set>
       <set comment="band 3">
        <r>  0.0219  0.0058  0.0000  0.0251  0.1216  0.0000  0.0656  0.0000  0.1287 </r>
        <r>  0.0017  0.0523  0.0478  0.0481  0.0000  0.0000  0.0000  0.0000  0.0000 </r>
        <r>  0.0017  0.0523  0.0478  0.0481  0.0000  0.0000  0.0000  0.0000  0.0000 </r>
       </set>
       <set comment="band 4">
        <r>  0.0000  0.0000  0.0208  0.0000  0.0000  0.0062  0.0000  0.2846  0.0000 </r>
        <r>  0.0062  0.0662  0.0150  0.0979  0.0000  0.0000  0.0000  0.0000  0.0000 </r>
        <r>  0.0062  0.0662  0.0150  0.0979  0.0000  0.0000  0.0000  0.0000  0.0000 </r>
       </set>
       <set comment="band 5">
        <r>  0.1217  0.0191  0.0000  0.0235  0.0287  0.0000  0.0522  0.0000  0.0057 </r>
        <r>  0.0328  0.0238  0.1106  0.0311  0.0000  0.0000  0.0000  0.0000  0.0000 </r>
        <r>  0.0328  0.0238  0.1106  0.0311  0.0000  0.0000  0.0000  0.0000  0.0000 </r>
       </set>
       <set comment="band 6">
        <r>  0.0000  0.0000  0.0056  0.0000  0.0000  0.3933  0.0000  0.0047  0.0000 </r>
        <r>  0.0029  0.0868  0.0506  0.0342  0.0000  0.0000  0.0000  0.0000  0.0000 </r>
        <r>  0.0029  0.0868  0.0506  0.0342  0.0000  0.0000  0.0000  0.0000  0.0000 </r>
       </set>
       <set comment="band 7">
        <r>  0.0135  0.0434  0.0000  0.0225  0.0265  0.0000  0.1134  0.0000  0.1179 </r>
        <r>  0.0016  0.0793  0.0035  0.0967  0.0000  0.0000  0.0000  0.0000  0.0000 </r>
        <r>  0.0016  0.0793  0.0035  0.0967  0.0000  0.0000  0.0000  0.0000  0.0000 </r>
       </set>
       <set comment="band 8">
        <r>  0.0000  0.0000  0.0647  0.0000  0.0000  0.0064  0.0000  0.0674  0.0000 </r>
        <r>  0.0087  0.0383  0.1533  0.0651  0.0000  0.0000  0.0000  0.0000  0.0000 </r>
        <r>  0.0087  0.0383  0.1533  0.0651  0.0000  0.0000  0.0000  0.0000  0.0000 </r>
       </set>
       <set comment="band 9">
        <r>  0.0025  0.0077  0.0000  0.0016  0.2466  0.0000  0.2341  0.0000  0.1593 </r>
        <r>  0.0043  0.0375  0.0216  0.0219  0.0000  0.0000  0.0000  0.0000  0.0000 </r>
        <r>  0.0043  0.0375  0.0216  0.0219  0.0000  0.0000  0.0000  0.0000  0.0000 </r>
       </set>
       <set comment="band 10">
        <r>  0.0080  0.0088  0.0000  0.0051  0.1226  0.0000  0.0882  0.0000  0.3459 </r>
        <r>  0.0034  0.0444  0.0233  0.0137  0.0000  0.0000  0.0000  0.0000  0.0000 </r>
        <r>  0.0034  0.0444  0.0233  0.0137  0.0000  0.0000  0.0000  0.0000  0.0000 </r>
       </set>
       <set comment="band 11">
        <r>  0.0114  0.0028  0.0000  0.0006  0.3142  0.0000  0.3114  0.0000  0.0885 </r>
        <r>  0.0004  0.0205  0.0071  0.0398  0.0000  0.0000  0.0000  0.0000  0.0000 </r>
        <r>  0.0004  0.0205  0.0071  0.0398  0.0000  0.0000  0.0000  0.0000  0.0000 </r>
       </set>
       <set comment="band 12">
        <r>  0.0000  0.0000  0.0065  0.0000  0.0000  0.1057  0.0000  0.4327  0.0000 </r>
        <r>  0.0211  0.0366  0.0268  0.0058  0.0000  0.0000  0.0000  0.0000  0.0000 </r>
        <r>  0.0211  0.0366  0.0268  0.0058  0.0000  0.0000  0.0000  0.0000  0.0000 </r>
       </set>
       <set comment="band 13">
        <r>  0.0000  0.0000  0.0026  0.0000  0.0000  0.3984  0.0000  0.0885  0.0000 </r>
        <r>  0.0083  0.0430  0.0288  0.0702  0.0000  0.0000  0.0000  0.0000  0.0000 </r>
        <r>  0.0083  0.0430  0.0288  0.0702  0.0000  0.0000  0.0000  0.0000  0.0000 </r>
       </set>
       <set comment="band 14">
        <r>  0.0019  0.0109  0.0000  0.0162  0.0051  0.0000  0.0145  0.0000  0.0090 </r>
        <r>  0.0090  0.0054  0.0062  0.0013  0.0000  0.0000  0.0000  0.0000  0.0000 </r>
        <r>  0.0090  0.0053  0.0061  0.0013  0.0000  0.0000  0.0000  0.0000  0.0000 </r>
       </set>
      </set>
      <set comment="kpoint 8">
       <set comment="band 1">
        <r>  0.0208  0.0185  0.0000  0.0307  0.0314  0.0000  0.0003  0.0000  0.0158 </r>
        <r>  0.3195  0.0004  0.0059  0.0003  0.0000  0.0000  0.0000  0.0000  0.0000 </r>
        <r>  0.3195  0.0004  0.0059  0.0003  0.0000  0.0000  0.0000  0.0000  0.0000 </r>
       </set>
       <set comment="band 2">
        <r>  0.0000  0.0000  0.0071  0.0000  0.0000  0.0407  0.0000  0.0721  0.0000 </r>
        <r>  0.3311  0.0003  0.0027  0.0003  0.0000  0.0000  0.0000  0.0000  0.0000 </r>
        <r>  0.3310  0.0003  0.0027  0.0003  0.0000  0.0000  0.0000  0.0000  0.0000 </r>
       </set>
       <set comment="band 3">
        <r>  0.1026  0.0024  0.0000  0.0266  0.0645  0.0000  0.0342  0.0000  0.0433 </r>
        <r>  0.0043  0.0508  0.0087  0.1020  0.0000  0.0000  0.0000  0.0000  0.0000 </r>
        <r>  0.0043  0.0508  0.0087  0.1020  0.0000  0.0000  0.0000  0.0000  0.0000 </r>
       </set>
       <set comment="band 4">
        <r>  0.0000  0.0000  0.0350  0.0000  0.0000  0.0692  0.0000  0.1796  0.0000 </r>
        <r>  0.0071  0.0573  0.0054  0.1112  0.0000  0.0000  0.0000  0.0000  0.0000 </r>
        <r>  0.0071  0.0573  0.0054  0.1112  0.0000  0.0000  0.0000  0.0000  0.0000 </r>
       </set>
       <set comment="band 5">
        <r>  0.0162  0.0240  0.0000  0.0179  0.1402  0.0000  0.0904  0.0000  0.0527 </r>
        <r>  0.0206  0.0058  0.1295  0.0199  0.0000  0.0000  0.0000  0.0000  0.0000 </r>
        <r>  0.0206  0.0058  0.1295  0.0199  0.0000  0.0000  0.0000  0.0000  0.0000 </r>
       </set>
       <set comment="band 6">
        <r>  0.0000  0.0000  0.0256  0.0000  0.0000  0.3184  0.0000  0.0261  0.0000 </r>
        <r>  0.0020  0.1085  0.0279  0.0475  0.0000  0.0000  0.0000  0.0000  0.0000 </r>
        <r>  0.0020  0.1085  0.0279  0.0475  0.0000  0.0000  0.0000  0.0000  0.0000 </r>
       </set>
       <set comment="band 7">
        <r>  0.0233  0.0416  0.0000  0.0489  0.0014  0.0000  0.0710  0.0000  0.0230 </r>
        <r>  0.0063  0.1216  0.0320  0.0561  0.0000  0.0000  0.0000  0.0000  0.0000 </r>
        <r>  0.0063  0.1216  0.0320  0.0561  0.0000  0.0000  0.0000  0.0000  0.0000 </r>
       </set>
       <set comment="band 8">
        <r>  0.0000  0.0000  0.0363  0.0000  0.0000  0.0160  0.0000  0.1502  0.0000 </r>
        <r>  0.0118  0.0171  0.1757  0.0390  0.0000  0.0000  0.0000  0.0000  0.0000 </r>
        <r>  0.0118  0.0172  0.1757  0.0390  0.0000  0.0000  0.0000  0.0000  0.0000 </r>
       </set>
       <set comment="band 9">
        <r>  0.0034  0.0196  0.0000  0.0198  0.1840  0.0000  0.1602  0.0000  0.1971 </r>
        <r>  0.0008  0.0478  0.0257  0.0261  0.0000  0.0000  0.0000  0.0000  0.0000 </r>
        <r>  0.0008  0.0478  0.0257  0.0261  0.0000  0.0000  0.0000  0.0000  0.0000 </r>
       </set>
       <set comment="band 10">
        <r>  0.0051  0.0091  0.0000  0.0018  0.0649  0.0000  0.3341  0.0000  0.3775 </r>
        <r>  0.0002  0.0266  0.0149  0.0068  0.0000  0.0000  0.0000  0.0000  0.0000 </r>
        <r>  0.0002  0.0266  0.0149  0.0068  0.0000  0.0000  0.0000  0.0000  0.0000 </r>
       </set>
       <set comment="band 11">
        <r>  0.0154  0.0057  0.0000  0.0107  0.3789  0.0000  0.2183  0.0000  0.1807 </r>
        <r>  0.0021  0.0014  0.0171  0.0181  0.0000  0.0000  0.0000  0.0000  0.0000 </r>
        <r>  0.0021  0.0014  0.0171  0.0181  0.0000  0.0000  0.0000  0.0000  0.0000 </r>
       </set>
       <set comment="band 12">
        <r>  0.0000  0.0000  0.0063  0.0000  0.0000  0.1640  0.0000  0.3324  0.0000 </r>
        <r>  0.0091  0.0683  0.0151  0.0162  0.0000  0.0000  0.0000  0.0000  0.0000 </r>
        <r>  0.0091  0.0683  0.0151  0.0162  0.0000  0.0000  0.0000  0.0000  0.0000 </r>
       </set>
       <set comment="band 13">
        <r>  0.0000  0.0000  0.0004  0.0000  0.0000  0.3331  0.0000  0.1444  0.0000 </r>
        <r>  0.0190  0.0144  0.0666  0.0290  0.0000  0.0000  0.0000  0.0000  0.0000 </r>
        <r>  0.0190  0.0144  0.0666  0.0290  0.0000  0.0000  0.0000  0.0000  0.0000 </r>
       </set>
       <set comment="band 14">
        <r>  0.1877  0.0089  0.0000  0.0533  0.0404  0.0000  0.0061  0.0000  0.0387 </r>
        <r>  0.0001  0.0013  0.0115  0.0051  0.0000  0.0000  0.0000  0.0000  0.0000 </r>
        <r>  0.0001  0.0013  0.0115  0.0051  0.0000  0.0000  0.0000  0.0000  0.0000 </r>
       </set>
      </set>
      <set comment="kpoint 9">
       <set comment="band 1">
        <r>  0.0218  0.0321  0.0000  0.0178  0.0177  0.0000  0.0004  0.0000  0.0266 </r>
        <r>  0.3183  0.0009  0.0058  0.0003  0.0000  0.0000  0.0000  0.0000  0.0000 </r>
        <r>  0.3183  0.0009  0.0058  0.0003  0.0000  0.0000  0.0000  0.0000  0.0000 </r>
       </set>
       <set comment="band 2">
        <r>  0.0000  0.0000  0.0084  0.0000  0.0000  0.0705  0.0000  0.0375  0.0000 </r>
        <r>  0.3319  0.0005  0.0027  0.0002  0.0000  0.0000  0.0000  0.0000  0.0000 </r>
        <r>  0.3319  0.0005  0.0027  0.0002  0.0000  0.0000  0.0000  0.0000  0.0000 </r>
       </set>
       <set comment="band 3">
        <r>  0.0650  0.0098  0.0000  0.0293  0.0359  0.0000  0.0616  0.0000  0.1071 </r>
        <r>  0.0004  0.1066  0.0171  0.0360  0.0000  0.0000  0.0000  0.0000  0.0000 </r>
        <r>  0.0004  0.1066  0.0171  0.0360  0.0000  0.0000  0.0000  0.0000  0.0000 </r>
       </set>
       <set comment="band 4">
        <r>  0.0000  0.0000  0.0084  0.0000  0.0000  0.1284  0.0000  0.2208  0.0000 </r>
        <r>  0.0041  0.0958  0.0001  0.0665  0.0000  0.0000  0.0000  0.0000  0.0000 </r>
        <r>  0.0041  0.0958  0.0001  0.0665  0.0000  0.0000  0.0000  0.0000  0.0000 </r>
       </set>
       <set comment="band 5">
        <r>  0.0785  0.0205  0.0000  0.0103  0.0692  0.0000  0.0001  0.0000  0.0673 </r>
        <r>  0.0340  0.0203  0.1496  0.0150  0.0000  0.0000  0.0000  0.0000  0.0000 </r>
        <r>  0.0340  0.0203  0.1496  0.0150  0.0000  0.0000  0.0000  0.0000  0.0000 </r>
       </set>
       <set comment="band 6">
        <r>  0.0000  0.0000  0.0470  0.0000  0.0000  0.1650  0.0000  0.0582  0.0000 </r>
        <r>  0.0039  0.0671  0.0535  0.0781  0.0000  0.0000  0.0000  0.0000  0.0000 </r>
        <r>  0.0039  0.0671  0.0535  0.0781  0.0000  0.0000  0.0000  0.0000  0.0000 </r>
       </set>
       <set comment="band 7">
        <r>  0.0102  0.0636  0.0000  0.0362  0.0089  0.0000  0.1207  0.0000  0.0185 </r>
        <r>  0.0005  0.0419  0.0089  0.1233  0.0000  0.0000  0.0000  0.0000  0.0000 </r>
        <r>  0.0005  0.0419  0.0089  0.1233  0.0000  0.0000  0.0000  0.0000  0.0000 </r>
       </set>
       <set comment="band 8">
        <r>  0.0000  0.0000  0.0523  0.0000  0.0000  0.0592  0.0000  0.0753  0.0000 </r>
        <r>  0.0130  0.0383  0.1559  0.0459  0.0000  0.0000  0.0000  0.0000  0.0000 </r>
        <r>  0.0130  0.0383  0.1559  0.0459  0.0000  0.0000  0.0000  0.0000  0.0000 </r>
       </set>
       <set comment="band 9">
        <r>  0.0074  0.0001  0.0000  0.0000  0.2535  0.0000  0.1474  0.0000  0.2690 </r>
        <r>  0.0010  0.0277  0.0016  0.0449  0.0000  0.0000  0.0000  0.0000  0.0000 </r>
        <r>  0.0010  0.0277  0.0016  0.0449  0.0000  0.0000  0.0000  0.0000  0.0000 </r>
       </set>
       <set comment="band 10">
        <r>  0.0074  0.0139  0.0000  0.0052  0.0463  0.0000  0.5213  0.0000  0.1099 </r>
        <r>  0.0006  0.0275  0.0274  0.0128  0.0000  0.0000  0.0000  0.0000  0.0000 </r>
        <r>  0.0006  0.0275  0.0274  0.0128  0.0000  0.0000  0.0000  0.0000  0.0000 </r>
       </set>
       <set comment="band 11">
        <r>  0.0246  0.0117  0.0000  0.0045  0.4757  0.0000  0.0544  0.0000  0.2306 </r>
        <r>  0.0023  0.0029  0.0262  0.0081  0.0000  0.0000  0.0000  0.0000  0.0000 </r>
        <r>  0.0023  0.0029  0.0262  0.0081  0.0000  0.0000  0.0000  0.0000  0.0000 </r>
       </set>
       <set comment="band 12">
        <r>  0.0000  0.0000  0.0020  0.0000  0.0000  0.1394  0.0000  0.3940  0.0000 </r>
        <r>  0.0077  0.0257  0.0088  0.0394  0.0000  0.0000  0.0000  0.0000  0.0000 </r>
        <r>  0.0077  0.0257  0.0088  0.0394  0.0000  0.0000  0.0000  0.0000  0.0000 </r>
       </set>
       <set comment="band 13">
        <r>  0.0000  0.0000  0.0016  0.0000  0.0000  0.3946  0.0000  0.1490  0.0000 </r>
        <r>  0.0208  0.0094  0.0755  0.0248  0.0000  0.0000  0.0000  0.0000  0.0000 </r>
        <r>  0.0208  0.0094  0.0755  0.0248  0.0000  0.0000  0.0000  0.0000  0.0000 </r>
       </set>
       <set comment="band 14">
        <r>  0.1320  0.0178  0.0000  0.0490  0.0233  0.0000  0.0105  0.0000  0.0695 </r>
        <r>  0.0001  0.0023  0.0278  0.0034  0.0000  0.0000  0.0000  0.0000  0.0000 </r>
        <r>  0.0001  0.0023  0.0278  0.0034  0.0000  0.0000  0.0000  0.0000  0.0000 </r>
       </set>
      </set>
      <set comment="kpoint 10">
       <set comment="band 1">
        <r>  0.0037  0.0239  0.0000  0.0333  0.0320  0.0000  0.0001  0.0000  0.0232 </r>
        <r>  0.3268  0.0001  0.0062  0.0000  0.0000  0.0000  0.0000  0.0000  0.0000 </r>
        <r>  0.3268  0.0001  0.0062  0.0000  0.0000  0.0000  0.0000  0.0000  0.0000 </r>
       </set>
       <set comment="band 2">
        <r>  0.0000  0.0000  0.0012  0.0000  0.0000  0.0490  0.0000  0.0725  0.0000 </r>
        <r>  0.3361  0.0001  0.0031  0.0001  0.0000  0.0000  0.0000  0.0000  0.0000 </r>
        <r>  0.3360  0.0001  0.0031  0.0001  0.0000  0.0000  0.0000  0.0000  0.0000 </r>
       </set>
       <set comment="band 3">
        <r>  0.0000  0.0000  0.0052  0.0000  0.0000  0.1910  0.0000  0.1716  0.0000 </r>
        <r>  0.0014  0.0682  0.0002  0.0892  0.0000  0.0000  0.0000  0.0000  0.0000 </r>
        <r>  0.0014  0.0682  0.0002  0.0892  0.0000  0.0000  0.0000  0.0000  0.0000 </r>
       </set>
       <set comment="band 4">
        <r>  0.1158  0.0140  0.0000  0.0182  0.0234  0.0000  0.0697  0.0000  0.0119 </r>
        <r>  0.0010  0.0456  0.0008  0.1277  0.0000  0.0000  0.0000  0.0000  0.0000 </r>
        <r>  0.0010  0.0456  0.0008  0.1277  0.0000  0.0000  0.0000  0.0000  0.0000 </r>
       </set>
       <set comment="band 5">
        <r>  0.0098  0.0425  0.0000  0.0147  0.1350  0.0000  0.0570  0.0000  0.0583 </r>
        <r>  0.0128  0.0514  0.0918  0.0171  0.0000  0.0000  0.0000  0.0000  0.0000 </r>
        <r>  0.0128  0.0514  0.0918  0.0171  0.0000  0.0000  0.0000  0.0000  0.0000 </r>
       </set>
       <set comment="band 6">
        <r>  0.0254  0.0245  0.0000  0.0604  0.0232  0.0000  0.0166  0.0000  0.0499 </r>
        <r>  0.0173  0.0805  0.0843  0.0298  0.0000  0.0000  0.0000  0.0000  0.0000 </r>
        <r>  0.0173  0.0805  0.0843  0.0298  0.0000  0.0000  0.0000  0.0000  0.0000 </r>
       </set>
       <set comment="band 7">
        <r>  0.0000  0.0000  0.0880  0.0000  0.0000  0.0674  0.0000  0.0296  0.0000 </r>
        <r>  0.0021  0.1084  0.0205  0.0916  0.0000  0.0000  0.0000  0.0000  0.0000 </r>
        <r>  0.0021  0.1084  0.0205  0.0916  0.0000  0.0000  0.0000  0.0000  0.0000 </r>
       </set>
       <set comment="band 8">
        <r>  0.0000  0.0000  0.0202  0.0000  0.0000  0.0931  0.0000  0.1434  0.0000 </r>
        <r>  0.0174  0.0142  0.1844  0.0175  0.0000  0.0000  0.0000  0.0000  0.0000 </r>
        <r>  0.0174  0.0142  0.1843  0.0175  0.0000  0.0000  0.0000  0.0000  0.0000 </r>
       </set>
       <set comment="band 9">
        <r>  0.0039  0.0023  0.0000  0.0065  0.3006  0.0000  0.0597  0.0000  0.3201 </r>
        <r>  0.0000  0.0395  0.0037  0.0253  0.0000  0.0000  0.0000  0.0000  0.0000 </r>
        <r>  0.0000  0.0395  0.0037  0.0253  0.0000  0.0000  0.0000  0.0000  0.0000 </r>
       </set>
       <set comment="band 10">
        <r>  0.0367  0.0018  0.0000  0.0007  0.0402  0.0000  0.7004  0.0000  0.0491 </r>
        <r>  0.0000  0.0133  0.0025  0.0204  0.0000  0.0000  0.0000  0.0000  0.0000 </r>
        <r>  0.0000  0.0133  0.0025  0.0204  0.0000  0.0000  0.0000  0.0000  0.0000 </r>
       </set>
       <set comment="band 11">
        <r>  0.0000  0.0000  0.0013  0.0000  0.0000  0.3129  0.0000  0.1959  0.0000 </r>
        <r>  0.0008  0.0487  0.0001  0.0299  0.0000  0.0000  0.0000  0.0000  0.0000 </r>
        <r>  0.0008  0.0487  0.0001  0.0299  0.0000  0.0000  0.0000  0.0000  0.0000 </r>
       </set>
       <set comment="band 12">
        <r>  0.0025  0.0104  0.0000  0.0214  0.2945  0.0000  0.0103  0.0000  0.3826 </r>
        <r>  0.0037  0.0009  0.0672  0.0012  0.0000  0.0000  0.0000  0.0000  0.0000 </r>
        <r>  0.0037  0.0009  0.0672  0.0012  0.0000  0.0000  0.0000  0.0000  0.0000 </r>
       </set>
       <set comment="band 13">
        <r>  0.0000  0.0000  0.0003  0.0000  0.0000  0.2358  0.0000  0.3391  0.0000 </r>
        <r>  0.0266  0.0010  0.0996  0.0019  0.0000  0.0000  0.0000  0.0000  0.0000 </r>
        <r>  0.0266  0.0010  0.0996  0.0019  0.0000  0.0000  0.0000  0.0000  0.0000 </r>
       </set>
       <set comment="band 14">
        <r>  0.1174  0.0534  0.0000  0.0641  0.0537  0.0000  0.0084  0.0000  0.0326 </r>
        <r>  0.0003  0.0020  0.0027  0.0043  0.0000  0.0000  0.0000  0.0000  0.0000 </r>
        <r>  0.0003  0.0020  0.0027  0.0043  0.0000  0.0000  0.0000  0.0000  0.0000 </r>
       </set>
      </set>
     </set>
    </set>
   </array>
  </projected>
 </calculation>
 <structure name="finalpos" >
  <crystal>
   <varray name="basis" >
    <v>       3.19031573       0.00000000       0.00000000 </v>
    <v>      -1.59515786       2.76289447       0.00000000 </v>
    <v>       0.00000000       0.00000000      36.87900430 </v>
   </varray>
   <i name="volume">    325.07019297 </i>
   <varray name="rec_basis" >
    <v>       0.31344860       0.18096963       0.00000000 </v>
    <v>       0.00000000       0.36193927       0.00000000 </v>
    <v>       0.00000000       0.00000000       0.02711570 </v>
   </varray>
  </crystal>
  <varray name="positions" >
   <v>       0.33333300       0.66666700       0.10086365 </v>
   <v>       0.66666700       0.33333300       0.05843072 </v>
   <v>       0.66666600       0.33333300       0.14329659 </v>
  </varray>
 </structure>
</modeling>
