unknown system                          
           1
     3.190316    0.000000    0.000000
    -1.595158    2.762894    0.000000
     0.000000    0.000000   36.879004
   Mo   S 
   1   2
Direct configuration=     1
   0.33333300  0.66666700  0.10086365
   0.66666700  0.33333300  0.05843072
   0.66666600  0.33333300  0.14329659
