    3    3    1    1
  0.7897505E+02  0.3190316E-09  0.3190316E-09  0.2687900E-08  0.5000000E-15
  1.000000000000000E-004
  CAR 
 unknown system                          
     18     10     14
 
  0.0000000E+00  0.0000000E+00  0.0000000E+00  0.1562500E-01
    1      -17.463482   1.000000
    2      -16.255412   1.000000
    3       -8.984394   1.000000
    4       -6.023617   1.000000
    5       -6.023611   1.000000
    6       -5.162274   1.000000
    7       -4.918064   1.000000
    8       -4.918031   1.000000
    9       -3.441893   1.000000
   10       -0.670382   0.000000
   11       -0.670352   0.000000
   12       -0.446636   0.000000
   13       -0.446622   0.000000
   14        1.992623   0.000000
 
  0.1250000E+00  0.0000000E+00  0.0000000E+00  0.9375000E-01
    1      -17.249334   1.000000
    2      -16.153025   1.000000
    3       -8.739862   1.000000
    4       -6.487035   1.000000
    5       -5.970357   1.000000
    6       -5.789194   1.000000
    7       -5.253794   1.000000
    8       -4.484791   1.000000
    9       -3.580314   1.000000
   10       -0.950404   0.000000
   11       -0.884602   0.000000
   12       -0.683226   0.000000
   13       -0.315572   0.000000
   14        2.370043   0.000000
 
  0.2500000E+00  0.0000000E+00  0.0000000E+00  0.9375000E-01
    1      -16.680594   1.000000
    2      -15.884263   1.000000
    3       -8.373773   1.000000
    4       -7.213586   1.000000
    5       -6.951205   1.000000
    6       -5.888823   1.000000
    7       -5.202110   1.000000
    8       -4.736372   1.000000
    9       -4.148273   1.000000
   10       -1.274517   0.000000
   11       -1.097954   0.000000
   12       -0.555844   0.000000
   13        0.301403   0.000000
   14        3.178250   0.000000
 
  0.3750000E+00  0.0000000E+00  0.0000000E+00  0.9375000E-01
    1      -16.005479   1.000000
    2      -15.575836   1.000000
    3       -8.811024   1.000000
    4       -7.818580   1.000000
    5       -7.346422   1.000000
    6       -6.386159   1.000000
    7       -5.145674   1.000000
    8       -4.611597   1.000000
    9       -4.343474   1.000000
   10       -1.279395   0.000000
   11       -1.000524   0.000000
   12        0.162673   0.000000
   13        0.694733   0.000000
   14        3.701522   0.000000
 
  0.5000000E+00  0.0000000E+00  0.0000000E+00  0.4687500E-01
    1      -15.677222   1.000000
    2      -15.432513   1.000000
    3       -9.143671   1.000000
    4       -8.183502   1.000000
    5       -7.472731   1.000000
    6       -6.566739   1.000000
    7       -5.284528   1.000000
    8       -4.384515   1.000000
    9       -4.062687   1.000000
   10       -1.257079   0.000000
   11       -0.741138   0.000000
   12        0.461262   0.000000
   13        0.810160   0.000000
   14        2.740595   0.000000
 
  0.1250000E+00  0.1250000E+00  0.0000000E+00  0.9375000E-01
    1      -16.856521   1.000000
    2      -15.966015   1.000000
    3       -8.392598   1.000000
    4       -7.051025   1.000000
    5       -6.532518   1.000000
    6       -6.067637   1.000000
    7       -5.449722   1.000000
    8       -4.350315   1.000000
    9       -3.952205   1.000000
   10       -1.349647   0.000000
   11       -0.971468   0.000000
   12       -0.959667   0.000000
   13        0.279281   0.000000
   14        2.961967   0.000000
 
  0.2500000E+00  0.1250000E+00  0.0000000E+00  0.1875000E+00
    1      -16.222932   1.000000
    2      -15.667480   1.000000
    3       -8.455353   1.000000
    4       -7.477743   1.000000
    5       -7.214596   1.000000
    6       -6.571939   1.000000
    7       -5.350278   1.000000
    8       -4.712528   1.000000
    9       -4.235842   1.000000
   10       -1.432990   0.000000
   11       -0.984514   0.000000
   12       -0.489693   0.000000
   13        0.787114   0.000000
   14        3.935315   0.000000
 
  0.3750000E+00  0.1250000E+00  0.0000000E+00  0.1875000E+00
    1      -15.692456   1.000000
    2      -15.423564   1.000000
    3       -8.856318   1.000000
    4       -8.240775   1.000000
    5       -7.344987   1.000000
    6       -6.588748   1.000000
    7       -5.335101   1.000000
    8       -5.194350   1.000000
    9       -3.908972   1.000000
   10       -1.238232   0.000000
   11       -0.727921   0.000000
   12        0.131994   0.000000
   13        0.820814   0.000000
   14        3.267434   0.000000
 
  0.2500000E+00  0.2500000E+00  0.0000000E+00  0.9375000E-01
    1      -15.707418   1.000000
    2      -15.414566   1.000000
    3       -8.495939   1.000000
    4       -8.291574   1.000000
    5       -7.017812   1.000000
    6       -6.637051   1.000000
    7       -6.317926   1.000000
    8       -5.060898   1.000000
    9       -3.937806   1.000000
   10       -1.289241   0.000000
   11       -0.678206   0.000000
   12       -0.366548   0.000000
   13        1.108862   0.000000
   14        4.099789   0.000000
 
  0.3750000E+00  0.2500000E+00  0.0000000E+00  0.9375000E-01
    1      -15.472531   1.000000
    2      -15.295409   1.000000
    3       -8.676001   1.000000
    4       -8.326914   1.000000
    5       -7.302173   1.000000
    6       -6.639569   1.000000
    7       -6.409406   1.000000
    8       -5.447186   1.000000
    9       -3.570374   1.000000
   10       -1.614892   0.000000
   11       -0.308180   0.000000
   12       -0.127603   0.000000
   13        1.254162   0.000000
   14        3.510378   0.000000
