 vasp.5.4.4.18Apr17-6-g9f103f2a35 (build Jun 30 2017 11:15:00) complex          
  
 executed on    STALLO_VASP_5.4.4 date 2019.11.08  11:59:21
 running on    4 total cores
 distrk:  each k-point on    4 cores,    1 groups
 distr:  one band on NCORES_PER_BAND=   2 cores,    2 groups


--------------------------------------------------------------------------------------------------------


 INCAR:
 POTCAR:   PAW_PBE Mo 08Apr2002                   
 POTCAR:    PAW_PBE S 17Jan2003                   
 POTCAR:   PAW_PBE Mo 08Apr2002                   
   VRHFIN =Mo: 4p5s4d                                                           
   LEXCH  = PE                                                                  
   EATOM  =   217.5180 eV,   15.9871 Ry                                         
                                                                                
   TITEL  = PAW_PBE Mo 08Apr2002                                                
   LULTRA =        F    use ultrasoft PP ?                                      
   IUNSCR =        1    unscreen: 0-lin 1-nonlin 2-no                           
   RPACOR =    2.200    partial core radius                                     
   POMASS =   95.940; ZVAL   =    6.000    mass and valenz                      
   RCORE  =    2.750    outmost cutoff radius                                   
   RWIGS  =    2.750; RWIGS  =    1.455    wigner-seitz radius (au A)           
   ENMAX  =  224.584; ENMIN  =  168.438 eV                                      
   RCLOC  =    2.111    cutoff for local pot                                    
   LCOR   =        T    correct aug charges                                     
   LPAW   =        T    paw PP                                                  
   EAUG   =  345.278                                                            
   DEXC   =    -.088                                                            
   RMAX   =    3.077    core radius for proj-oper                               
   RAUG   =    1.300    factor for augmentation sphere                          
   RDEP   =    2.815    radius for radial grids                                 
   QCUT   =   -4.063; QGAM   =    8.126    optimization parameters              
                                                                                
   Description                                                                  
     l     E      TYP  RCUT    TYP  RCUT                                        
     2   .000     23  2.500                                                     
     2   .000     23  2.500                                                     
     0   .000     23  2.600                                                     
     0  1.000     23  2.600                                                     
     1   .400     23  2.750                                                     
     1  2.000     23  2.750                                                     
     3   .000      7   .000                                                     
  local pseudopotential read in
  partial core-charges read in
  atomic valenz-charges read in
  non local Contribution for L=           2  read in
    real space projection operators read in
  non local Contribution for L=           2  read in
    real space projection operators read in
  non local Contribution for L=           0  read in
    real space projection operators read in
  non local Contribution for L=           0  read in
    real space projection operators read in
  non local Contribution for L=           1  read in
    real space projection operators read in
  non local Contribution for L=           1  read in
    real space projection operators read in
    PAW grid and wavefunctions read in
 
   number of l-projection  operators is LMAX  =           6
   number of lm-projection operators is LMMAX =          18
 
 POTCAR:    PAW_PBE S 17Jan2003                   
   VRHFIN =S : s2p4                                                             
   LEXCH  = PE                                                                  
   EATOM  =   276.8230 eV,   20.3459 Ry                                         
                                                                                
   TITEL  = PAW_PBE S 17Jan2003                                                 
   LULTRA =        F    use ultrasoft PP ?                                      
   IUNSCR =        1    unscreen: 0-lin 1-nonlin 2-no                           
   RPACOR =    1.500    partial core radius                                     
   POMASS =   32.066; ZVAL   =    6.000    mass and valenz                      
   RCORE  =    1.900    outmost cutoff radius                                   
   RWIGS  =    2.200; RWIGS  =    1.164    wigner-seitz radius (au A)           
   ENMAX  =  280.000; ENMIN  =  194.016 eV                                      
   ICORE  =        2    local potential                                         
   LCOR   =        T    correct aug charges                                     
   LPAW   =        T    paw PP                                                  
   EAUG   =  335.092                                                            
   DEXC   =     .000                                                            
   RMAX   =    2.867    core radius for proj-oper                               
   RAUG   =    1.300    factor for augmentation sphere                          
   RDEP   =    1.954    radius for radial grids                                 
   QCUT   =   -4.360; QGAM   =    8.721    optimization parameters              
                                                                                
   Description                                                                  
     l     E      TYP  RCUT    TYP  RCUT                                        
     0   .000     23  1.900                                                     
     0   .000     23  1.900                                                     
     1   .000     23  1.900                                                     
     1   .000     23  1.900                                                     
     2   .000     23  1.900                                                     
  local pseudopotential read in
  partial core-charges read in
  atomic valenz-charges read in
  non local Contribution for L=           0  read in
    real space projection operators read in
  non local Contribution for L=           0  read in
    real space projection operators read in
  non local Contribution for L=           1  read in
    real space projection operators read in
  non local Contribution for L=           1  read in
    real space projection operators read in
    PAW grid and wavefunctions read in
 
   number of l-projection  operators is LMAX  =           4
   number of lm-projection operators is LMMAX =           8
 
 PAW_PBE Mo 08Apr2002                   :
 energy of atom  1       EATOM= -217.5180
 kinetic energy error for atom=    0.0005 (will be added to EATOM!!)
  PAW_PBE S 17Jan2003                   :
 energy of atom  2       EATOM= -276.8230
 kinetic energy error for atom=    0.0008 (will be added to EATOM!!)
 
 
 POSCAR: MoS2_mp-2815_computed                   
  positions in cartesian coordinates
  velocities in cartesian coordinates
  No initial velocities read in
 exchange correlation table for  LEXCH =        8
   RHO(1)=    0.500       N(1)  =     2000
   RHO(2)=  100.500       N(2)  =     4000
 


--------------------------------------------------------------------------------------------------------


 ion  position               nearest neighbor table
   1  0.333  0.667  0.138-   3 2.42   2 2.42   2 2.42   3 2.42   3 2.42   2 2.42
   2  0.667  0.333  0.080-   1 2.42   1 2.42   1 2.42
   3  0.667  0.333  0.197-   1 2.42   1 2.42   1 2.42
 
  LATTYP: Found a hexagonal cell.
 ALAT       =     3.1903157300
 C/A-ratio  =     8.4251862746
  
  Lattice vectors:
  
 A1 = (   3.1903157300,   0.0000000000,   0.0000000000)
 A2 = (  -1.5951578650,   2.7628944683,   0.0000000000)
 A3 = (   0.0000000000,   0.0000000000,  26.8790043000)


Analysis of symmetry for initial positions (statically):
=====================================================================
 Subroutine PRICEL returns:
 Original cell was already a primitive cell.
 

 Routine SETGRP: Setting up the symmetry group for a 
 hexagonal supercell.


 Subroutine GETGRP returns: Found 12 space group operations
 (whereof  6 operations were pure point group operations)
 out of a pool of 24 trial point group operations.


The static configuration has the point symmetry C_3v.
 The point group associated with its full space group is D_3h.


Analysis of symmetry for dynamics (positions and initial velocities):
=====================================================================
 Subroutine PRICEL returns:
 Original cell was already a primitive cell.
 

 Routine SETGRP: Setting up the symmetry group for a 
 hexagonal supercell.


 Subroutine GETGRP returns: Found 12 space group operations
 (whereof  6 operations were pure point group operations)
 out of a pool of 24 trial point group operations.


The dynamic configuration has the point symmetry C_3v.
 The point group associated with its full space group is D_3h.


 Subroutine INISYM returns: Found 12 space group operations
 (whereof  6 operations are pure point group operations),
 and found     1 'primitive' translations

 
 
 KPOINTS: k-density: 4.0                          

Automatic generation of k-mesh.
Space group operators:
 irot       det(A)        alpha          n_x          n_y          n_z        tau_x        tau_y        tau_z
    1     1.000000     0.000001     1.000000     0.000000     0.000000     0.000000     0.000000     0.000000
    2     1.000000   120.000000     0.000000     0.000000    -1.000000     0.000000     0.000000     0.000000
    3     1.000000   120.000000     0.000000     0.000000     1.000000     0.000000     0.000000     0.000000
    4    -1.000000   179.999999     1.000000    -0.000000     0.000000     0.000000     0.000000     0.000000
    5    -1.000000   180.000000     0.500000    -0.866025     0.000000     0.000000     0.000000     0.000000
    6    -1.000000   180.000000    -0.500000    -0.866025     0.000000     0.000000     0.000000     0.000000
    7    -1.000000    60.000000     0.000000     0.000000    -1.000000    -0.000000     0.000000     0.276777
    8    -1.000000   180.000000     0.000000     0.000000     1.000000     0.000000     0.000000     0.276777
    9    -1.000000    60.000000     0.000000     0.000000     1.000000     0.000000     0.000001     0.276777
   10     1.000000   180.000000     0.866025    -0.500000     0.000000     0.000000     0.000000     0.276777
   11     1.000000   180.000000     0.000000     1.000000     0.000000     0.000000     0.000000     0.276777
   12     1.000000   179.999999     0.866025     0.500000     0.000000    -0.000000     0.000001     0.276777
 
 Subroutine IBZKPT returns following result:
 ===========================================
 
 Found     10 irreducible k-points:
 
 Following reciprocal coordinates:
            Coordinates               Weight
  0.000000  0.000000  0.000000      1.000000
  0.125000  0.000000  0.000000      6.000000
  0.250000  0.000000  0.000000      6.000000
  0.375000  0.000000  0.000000      6.000000
  0.500000  0.000000  0.000000      3.000000
  0.125000  0.125000  0.000000      6.000000
  0.250000  0.125000  0.000000     12.000000
  0.375000  0.125000  0.000000     12.000000
  0.250000  0.250000  0.000000      6.000000
  0.375000  0.250000  0.000000      6.000000
 
 Following cartesian coordinates:
            Coordinates               Weight
  0.000000  0.000000  0.000000      1.000000
  0.039181  0.022621  0.000000      6.000000
  0.078362  0.045242  0.000000      6.000000
  0.117543  0.067864  0.000000      6.000000
  0.156724  0.090485  0.000000      3.000000
  0.039181  0.067864  0.000000      6.000000
  0.078362  0.090485  0.000000     12.000000
  0.117543  0.113106  0.000000     12.000000
  0.078362  0.135727  0.000000      6.000000
  0.117543  0.158348  0.000000      6.000000
 
 TETIRR: Found     36 inequivalent tetrahedra from      384


--------------------------------------------------------------------------------------------------------




 Dimension of arrays:
   k-points           NKPTS =     10   k-points in BZ     NKDIM =     10   number of bands    NBANDS=     14
   number of dos      NEDOS =    301   number of ions     NIONS =      3
   non local maximal  LDIM  =      6   non local SUM 2l+1 LMDIM =     18
   total plane-waves  NPLWV =  67200
   max r-space proj   IRMAX =      1   max aug-charges    IRDMAX=  18408
   dimension x,y,z NGX =    20 NGY =   20 NGZ =  168
   dimension x,y,z NGXF=    40 NGYF=   40 NGZF=  336
   support grid    NGXF=    40 NGYF=   40 NGZF=  336
   ions per type =               1   2
   NGX,Y,Z   is equivalent  to a cutoff of  10.42, 10.42, 10.39 a.u.
   NGXF,Y,Z  is equivalent  to a cutoff of  20.84, 20.84, 20.78 a.u.

 SYSTEM =  unknown system                          
 POSCAR =  MoS2_mp-2815_computed                   

 Startparameter for this run:
   NWRITE =      2    write-flag & timer
   PREC   = normal    normal or accurate (medium, high low for compatibility)
   ISTART =      0    job   : 0-new  1-cont  2-samecut
   ICHARG =      2    charge: 1-file 2-atom 10-const
   ISPIN  =      1    spin polarized calculation?
   LNONCOLLINEAR =      F non collinear calculations
   LSORBIT =      F    spin-orbit coupling
   INIWAV =      1    electr: 0-lowe 1-rand  2-diag
   LASPH  =      F    aspherical Exc in radial PAW
   METAGGA=      F    non-selfconsistent MetaGGA calc.

 Electronic Relaxation 1
   ENCUT  =  650.0 eV  47.77 Ry    6.91 a.u.   6.63  6.63 55.88*2*pi/ulx,y,z
   ENINI  =  650.0     initial cutoff
   ENAUG  =  345.3 eV  augmentation charge cutoff
   NELM   =     60;   NELMIN=  4; NELMDL= -5     # of ELM steps 
   EDIFF  = 0.1E-04   stopping-criterion for ELM
   LREAL  =      F    real-space projection
   NLSPLINE    = F    spline interpolate recip. space projectors
   LCOMPAT=      F    compatible to vasp.4.4
   GGA_COMPAT  = T    GGA compatible to vasp.4.4-vasp.4.6
   LMAXPAW     = -100 max onsite density
   LMAXMIX     =    2 max onsite mixed and CHGCAR
   VOSKOWN=      0    Vosko Wilk Nusair interpolation
   ROPT   =    0.00000   0.00000
 Ionic relaxation
   EDIFFG = 0.1E-03   stopping-criterion for IOM
   NSW    =      0    number of steps for IOM
   NBLOCK =      1;   KBLOCK =      1    inner block; outer block 
   IBRION =     -1    ionic relax: 0-MD 1-quasi-New 2-CG
   NFREE  =      0    steps in history (QN), initial steepest desc. (CG)
   ISIF   =      2    stress and relaxation
   IWAVPR =     10    prediction:  0-non 1-charg 2-wave 3-comb
   ISYM   =      2    0-nonsym 1-usesym 2-fastsym
   LCORR  =      T    Harris-Foulkes like correction to forces

   POTIM  = 0.5000    time-step for ionic-motion
   TEIN   =    0.0    initial temperature
   TEBEG  =    0.0;   TEEND  =   0.0 temperature during run
   SMASS  =  -3.00    Nose mass-parameter (am)
   estimated Nose-frequenzy (Omega)   =  0.10E-29 period in steps =****** mass=  -0.233E-27a.u.
   SCALEE = 1.0000    scale energy and forces
   NPACO  =    256;   APACO  = 16.0  distance and # of slots for P.C.
   PSTRESS=    0.0 pullay stress

  Mass of Ions in am
   POMASS =  95.94 32.07
  Ionic Valenz
   ZVAL   =   6.00  6.00
  Atomic Wigner-Seitz radii
   RWIGS  =  -1.00 -1.00
  virtual crystal weights 
   VCA    =   1.00  1.00
   NELECT =      18.0000    total number of electrons
   NUPDOWN=      -1.0000    fix difference up-down

 DOS related values:
   EMIN   =  10.00;   EMAX   =-10.00  energy-range for DOS
   EFERMI =   0.00
   ISMEAR =    -5;   SIGMA  =   0.20  broadening in eV -4-tet -1-fermi 0-gaus

 Electronic relaxation 2 (details)
   IALGO  =     68    algorithm
   LDIAG  =      T    sub-space diagonalisation (order eigenvalues)
   LSUBROT=      F    optimize rotation matrix (better conditioning)
   TURBO    =      0    0=normal 1=particle mesh
   IRESTART =      0    0=no restart 2=restart with 2 vectors
   NREBOOT  =      0    no. of reboots
   NMIN     =      0    reboot dimension
   EREF     =   0.00    reference energy to select bands
   IMIX   =      4    mixing-type and parameters
     AMIX     =   0.40;   BMIX     =  1.00
     AMIX_MAG =   1.60;   BMIX_MAG =  1.00
     AMIN     =   0.10
     WC   =   100.;   INIMIX=   1;  MIXPRE=   1;  MAXMIX= -45

 Intra band minimization:
   WEIMIN = 0.0000     energy-eigenvalue tresh-hold
   EBREAK =  0.18E-06  absolut break condition
   DEPER  =   0.30     relativ break condition  

   TIME   =   0.40     timestep for ELM

  volume/ion in A,a.u.               =      78.98       532.95
  Fermi-wavevector in a.u.,A,eV,Ry     =   0.693365  1.310270  6.541070  0.480755
  Thomas-Fermi vector in A             =   1.775558
 
 Write flags
   LWAVE        =      F    write WAVECAR
   LDOWNSAMPLE  =      F    k-point downsampling of WAVECAR
   LCHARG       =      T    write CHGCAR
   LVTOT        =      F    write LOCPOT, total local potential
   LVHAR        =      F    write LOCPOT, Hartree potential only
   LELF         =      F    write electronic localiz. function (ELF)
   LORBIT       =      0    0 simple, 1 ext, 2 COOP (PROOUT), +10 PAW based schemes


 Dipole corrections
   LMONO  =      F    monopole corrections only (constant potential shift)
   LDIPOL =      F    correct potential (dipole corrections)
   IDIPOL =      0    1-x, 2-y, 3-z, 4-all directions 
   EPSILON=  1.0000000 bulk dielectric constant

 Exchange correlation treatment:
   GGA     =    --    GGA type
   LEXCH   =     8    internal setting for exchange type
   VOSKOWN=      0    Vosko Wilk Nusair interpolation
   LHFCALC =     F    Hartree Fock is set to
   LHFONE  =     F    Hartree Fock one center treatment
   AEXX    =    0.0000 exact exchange contribution

 Linear response parameters
   LEPSILON=     F    determine dielectric tensor
   LRPA    =     F    only Hartree local field effects (RPA)
   LNABLA  =     F    use nabla operator in PAW spheres
   LVEL    =     F    velocity operator in full k-point grid
   LINTERFAST=   F  fast interpolation
   KINTER  =     0    interpolate to denser k-point grid
   CSHIFT  =0.1000    complex shift for real part using Kramers Kronig
   OMEGAMAX=  -1.0    maximum frequency
   DEG_THRESHOLD= 0.2000000E-02 threshold for treating states as degnerate
   RTIME   =   -0.100 relaxation time in fs
  (WPLASMAI=    0.000 imaginary part of plasma frequency in eV, 0.658/RTIME)
   DFIELD  = 0.0000000 0.0000000 0.0000000 field for delta impulse in time
 
 Orbital magnetization related:
   ORBITALMAG=     F  switch on orbital magnetization
   LCHIMAG   =     F  perturbation theory with respect to B field
   DQ        =  0.001000  dq finite difference perturbation B field
   LLRAUG    =     F  two centre corrections for induced B field



--------------------------------------------------------------------------------------------------------


 Static calculation
 charge density and potential will be updated during run
 non-spin polarized calculation
 RMM-DIIS sequential band-by-band and
  variant of blocked Davidson during initial phase
 perform sub-space diagonalisation
    before iterative eigenvector-optimisation
 modified Broyden-mixing scheme, WC =      100.0
 initial mixing is a Kerker type mixing with AMIX =  0.4000 and BMIX =      1.0000
 Hartree-type preconditioning will be used
 using additional bands            5
 reciprocal scheme for non local part
 use partial core corrections
 calculate Harris-corrections to forces 
   (improved forces if not selfconsistent)
 use gradient corrections 
 use of overlap-Matrix (Vanderbilt PP)
 Fermi weights with tetrahedron method with Bloechl corrections


--------------------------------------------------------------------------------------------------------


  energy-cutoff  :      650.00
  volume of cell :      236.93
      direct lattice vectors                 reciprocal lattice vectors
     3.190315730  0.000000000  0.000000000     0.313448600  0.180969634  0.000000000
    -1.595157865  2.762894468  0.000000000     0.000000000  0.361939267  0.000000000
     0.000000000  0.000000000 26.879004300     0.000000000  0.000000000  0.037203759

  length of vectors
     3.190315730  3.190315730 26.879004300     0.361939267  0.361939267  0.037203759


 
 k-points in units of 2pi/SCALE and weight: k-density: 4.0                          
   0.00000000  0.00000000  0.00000000       0.016
   0.03918108  0.02262120  0.00000000       0.094
   0.07836215  0.04524241  0.00000000       0.094
   0.11754323  0.06786361  0.00000000       0.094
   0.15672430  0.09048482  0.00000000       0.047
   0.03918108  0.06786361  0.00000000       0.094
   0.07836215  0.09048482  0.00000000       0.188
   0.11754323  0.11310602  0.00000000       0.188
   0.07836215  0.13572723  0.00000000       0.094
   0.11754323  0.15834843  0.00000000       0.094
 
 k-points in reciprocal lattice and weights: k-density: 4.0                          
   0.00000000  0.00000000  0.00000000       0.016
   0.12500000  0.00000000  0.00000000       0.094
   0.25000000  0.00000000  0.00000000       0.094
   0.37500000  0.00000000  0.00000000       0.094
   0.50000000  0.00000000  0.00000000       0.047
   0.12500000  0.12500000  0.00000000       0.094
   0.25000000  0.12500000  0.00000000       0.188
   0.37500000  0.12500000  0.00000000       0.188
   0.25000000  0.25000000  0.00000000       0.094
   0.37500000  0.25000000  0.00000000       0.094
 
 position of ions in fractional coordinates (direct lattice) 
   0.33333300  0.66666700  0.13838872
   0.66666700  0.33333300  0.08016914
   0.66666600  0.33333300  0.19660830
 
 position of ions in cartesian coordinates  (Angst):
  -0.00000160  1.84193057  3.71975108
   1.59515946  0.92096390  2.15486668
   1.59515627  0.92096390  5.28463547
 


--------------------------------------------------------------------------------------------------------


 k-point  1 :   0.0000 0.0000 0.0000  plane waves:    9003
 k-point  2 :   0.1250 0.0000 0.0000  plane waves:    8997
 k-point  3 :   0.2500 0.0000 0.0000  plane waves:    8913
 k-point  4 :   0.3750 0.0000 0.0000  plane waves:    8892
 k-point  5 :   0.5000 0.0000 0.0000  plane waves:    8878
 k-point  6 :   0.1250 0.1250 0.0000  plane waves:    8921
 k-point  7 :   0.2500 0.1250 0.0000  plane waves:    8910
 k-point  8 :   0.3750 0.1250 0.0000  plane waves:    8909
 k-point  9 :   0.2500 0.2500 0.0000  plane waves:    8925
 k-point 10 :   0.3750 0.2500 0.0000  plane waves:    8888

 maximum and minimum number of plane-waves per node :      4532     4430

 maximum number of plane-waves:      9003
 maximum index in each direction: 
   IXMAX=    6   IYMAX=    6   IZMAX=   55
   IXMIN=   -7   IYMIN=   -6   IZMIN=  -55


 parallel 3D FFT for wavefunctions:
    minimum data exchange during FFTs selected (reduces bandwidth)
 parallel 3D FFT for charge:
    minimum data exchange during FFTs selected (reduces bandwidth)


 total amount of memory used by VASP MPI-rank0    62867. kBytes
=======================================================================

   base      :      30000. kBytes
   nonl-proj :      13269. kBytes
   fftplans  :       5558. kBytes
   grid      :       8905. kBytes
   one-center:         31. kBytes
   wavefun   :       5104. kBytes
 
     INWAV:  cpu time    0.0000: real time    0.0004
 Broyden mixing: mesh for mixing (old mesh)
   NGX = 13   NGY = 13   NGZ =111
  (NGX  = 40   NGY  = 40   NGZ  =336)
  gives a total of  18759 points

 initial charge density was supplied:
 charge density of overlapping atoms calculated
 number of electron      18.0000000 magnetization 
 keeping initial charge density in first step


--------------------------------------------------------------------------------------------------------


 Maximum index for augmentation-charges         4397 (set IRDMAX)


--------------------------------------------------------------------------------------------------------


 First call to EWALD:  gamma=   0.286
 Maximum number of real-space cells 6x 6x 1
 Maximum number of reciprocal cells 2x 2x10

    FEWALD:  cpu time    0.0010: real time    0.0015


--------------------------------------- Iteration      1(   1)  ---------------------------------------


    POTLOK:  cpu time    0.0760: real time    0.4515
    SETDIJ:  cpu time    0.0040: real time    0.0043
     EDDAV:  cpu time    0.3649: real time    0.3690
 BZINTS: Fermi energy:  7.157667; 18.000000 electrons
         Band energy:   3.195537;  BLOECHL correction: -0.248485
       DOS:  cpu time    0.0010: real time    0.0010
    --------------------------------------------
      LOOP:  cpu time    0.4459: real time    0.8258

 eigenvalue-minimisations  :   280
 total energy-change (2. order) : 0.1466494E+03  (-0.6542219E+03)
 number of electron      18.0000000 magnetization 
 augmentation part       18.0000000 magnetization 

 Free energy of the ion-electron system (eV)
  ---------------------------------------------------
  alpha Z        PSCENC =        12.51390764
  Ewald energy   TEWEN  =      4286.25630342
  -Hartree energ DENC   =     -4967.71356795
  -exchange      EXHF   =         0.00000000
  -V(xc)+E(xc)   XCENC  =       -36.31055642
  PAW double counting   =       406.88651198     -329.34073203
  entropy T*S    EENTRO =         0.00000000
  eigenvalues    EBANDS =         3.19553697
  atomic energy  EATOM  =       771.16194735
  Solvation  Ediel_sol  =         0.00000000
  ---------------------------------------------------
  free energy    TOTEN  =       146.64935096 eV

  energy without entropy =      146.64935096  energy(sigma->0) =      146.64935096


--------------------------------------------------------------------------------------------------------




--------------------------------------- Iteration      1(   2)  ---------------------------------------


     EDDAV:  cpu time    0.5509: real time    0.5546
 BZINTS: Fermi energy: -2.217382; 18.000000 electrons
         Band energy:-148.600498;  BLOECHL correction:  0.000000
       DOS:  cpu time    0.0000: real time    0.0002
    --------------------------------------------
      LOOP:  cpu time    0.5509: real time    0.5548

 eigenvalue-minimisations  :   486
 total energy-change (2. order) :-0.1517960E+03  (-0.1435440E+03)
 number of electron      18.0000000 magnetization 
 augmentation part       18.0000000 magnetization 

 Free energy of the ion-electron system (eV)
  ---------------------------------------------------
  alpha Z        PSCENC =        12.51390764
  Ewald energy   TEWEN  =      4286.25630342
  -Hartree energ DENC   =     -4967.71356795
  -exchange      EXHF   =         0.00000000
  -V(xc)+E(xc)   XCENC  =       -36.31055642
  PAW double counting   =       406.88651198     -329.34073203
  entropy T*S    EENTRO =         0.00000000
  eigenvalues    EBANDS =      -148.60049759
  atomic energy  EATOM  =       771.16194735
  Solvation  Ediel_sol  =         0.00000000
  ---------------------------------------------------
  free energy    TOTEN  =        -5.14668359 eV

  energy without entropy =       -5.14668359  energy(sigma->0) =       -5.14668359


--------------------------------------------------------------------------------------------------------




--------------------------------------- Iteration      1(   3)  ---------------------------------------


     EDDAV:  cpu time    0.4629: real time    0.4631
 BZINTS: Fermi energy: -3.358698; 18.000000 electrons
         Band energy:-166.477919;  BLOECHL correction:  0.000000
       DOS:  cpu time    0.0000: real time    0.0002
    --------------------------------------------
      LOOP:  cpu time    0.4629: real time    0.4633

 eigenvalue-minimisations  :   394
 total energy-change (2. order) :-0.1787742E+02  (-0.1770848E+02)
 number of electron      18.0000000 magnetization 
 augmentation part       18.0000000 magnetization 

 Free energy of the ion-electron system (eV)
  ---------------------------------------------------
  alpha Z        PSCENC =        12.51390764
  Ewald energy   TEWEN  =      4286.25630342
  -Hartree energ DENC   =     -4967.71356795
  -exchange      EXHF   =         0.00000000
  -V(xc)+E(xc)   XCENC  =       -36.31055642
  PAW double counting   =       406.88651198     -329.34073203
  entropy T*S    EENTRO =         0.00000000
  eigenvalues    EBANDS =      -166.47791889
  atomic energy  EATOM  =       771.16194735
  Solvation  Ediel_sol  =         0.00000000
  ---------------------------------------------------
  free energy    TOTEN  =       -23.02410490 eV

  energy without entropy =      -23.02410490  energy(sigma->0) =      -23.02410490


--------------------------------------------------------------------------------------------------------




--------------------------------------- Iteration      1(   4)  ---------------------------------------


     EDDAV:  cpu time    0.4279: real time    0.4310
 BZINTS: Fermi energy: -3.335827; 18.000000 electrons
         Band energy:-166.854413;  BLOECHL correction:  0.000000
       DOS:  cpu time    0.0000: real time    0.0002
    --------------------------------------------
      LOOP:  cpu time    0.4279: real time    0.4312

 eigenvalue-minimisations  :   356
 total energy-change (2. order) :-0.3764937E+00  (-0.3753784E+00)
 number of electron      18.0000000 magnetization 
 augmentation part       18.0000000 magnetization 

 Free energy of the ion-electron system (eV)
  ---------------------------------------------------
  alpha Z        PSCENC =        12.51390764
  Ewald energy   TEWEN  =      4286.25630342
  -Hartree energ DENC   =     -4967.71356795
  -exchange      EXHF   =         0.00000000
  -V(xc)+E(xc)   XCENC  =       -36.31055642
  PAW double counting   =       406.88651198     -329.34073203
  entropy T*S    EENTRO =         0.00000000
  eigenvalues    EBANDS =      -166.85441261
  atomic energy  EATOM  =       771.16194735
  Solvation  Ediel_sol  =         0.00000000
  ---------------------------------------------------
  free energy    TOTEN  =       -23.40059862 eV

  energy without entropy =      -23.40059862  energy(sigma->0) =      -23.40059862


--------------------------------------------------------------------------------------------------------




--------------------------------------- Iteration      1(   5)  ---------------------------------------


     EDDAV:  cpu time    0.4409: real time    0.4401
 BZINTS: Fermi energy: -3.364046; 18.000000 electrons
         Band energy:-166.863587;  BLOECHL correction:  0.000000
       DOS:  cpu time    0.0000: real time    0.0002
    CHARGE:  cpu time    0.0320: real time    0.0321
    MIXING:  cpu time    0.0030: real time    0.0025
    --------------------------------------------
      LOOP:  cpu time    0.4759: real time    0.4749

 eigenvalue-minimisations  :   370
 total energy-change (2. order) :-0.9174530E-02  (-0.9172379E-02)
 number of electron      17.9999995 magnetization 
 augmentation part       -0.9448194 magnetization 

 Broyden mixing:
  rms(total) = 0.68892E+00    rms(broyden)= 0.68892E+00
  rms(prec ) = 0.74619E+00
  weight for this iteration     100.00

 Free energy of the ion-electron system (eV)
  ---------------------------------------------------
  alpha Z        PSCENC =        12.51390764
  Ewald energy   TEWEN  =      4286.25630342
  -Hartree energ DENC   =     -4967.71356795
  -exchange      EXHF   =         0.00000000
  -V(xc)+E(xc)   XCENC  =       -36.31055642
  PAW double counting   =       406.88651198     -329.34073203
  entropy T*S    EENTRO =         0.00000000
  eigenvalues    EBANDS =      -166.86358714
  atomic energy  EATOM  =       771.16194735
  Solvation  Ediel_sol  =         0.00000000
  ---------------------------------------------------
  free energy    TOTEN  =       -23.40977315 eV

  energy without entropy =      -23.40977315  energy(sigma->0) =      -23.40977315


--------------------------------------------------------------------------------------------------------




--------------------------------------- Iteration      1(   6)  ---------------------------------------


    POTLOK:  cpu time    0.0680: real time    0.0691
    SETDIJ:  cpu time    0.0040: real time    0.0039
    EDDIAG:  cpu time    0.0660: real time    0.0667
  RMM-DIIS:  cpu time    0.3120: real time    0.3114
    ORTHCH:  cpu time    0.0070: real time    0.0071
 BZINTS: Fermi energy: -4.355095; 18.000000 electrons
         Band energy:-167.355558;  BLOECHL correction:  0.000000
       DOS:  cpu time    0.0000: real time    0.0002
    CHARGE:  cpu time    0.0320: real time    0.0318
    MIXING:  cpu time    0.0020: real time    0.0022
    --------------------------------------------
      LOOP:  cpu time    0.4909: real time    0.4925

 eigenvalue-minimisations  :   295
 total energy-change (2. order) : 0.1160263E+01  (-0.5438979E+00)
 number of electron      17.9999996 magnetization 
 augmentation part       -0.3981906 magnetization 

 Broyden mixing:
  rms(total) = 0.26139E+00    rms(broyden)= 0.26139E+00
  rms(prec ) = 0.30705E+00
  weight for this iteration     100.00

 eigenvalues of (default mixing * dielectric matrix)
  average eigenvalue GAMMA=   0.8339
  0.8339

 Free energy of the ion-electron system (eV)
  ---------------------------------------------------
  alpha Z        PSCENC =        12.51390764
  Ewald energy   TEWEN  =      4286.25630342
  -Hartree energ DENC   =     -4966.05895349
  -exchange      EXHF   =         0.00000000
  -V(xc)+E(xc)   XCENC  =       -35.42288469
  PAW double counting   =       423.88643506     -347.23070822
  entropy T*S    EENTRO =         0.00000000
  eigenvalues    EBANDS =      -167.35555768
  atomic energy  EATOM  =       771.16194735
  Solvation  Ediel_sol  =         0.00000000
  ---------------------------------------------------
  free energy    TOTEN  =       -22.24951060 eV

  energy without entropy =      -22.24951060  energy(sigma->0) =      -22.24951060


--------------------------------------------------------------------------------------------------------




--------------------------------------- Iteration      1(   7)  ---------------------------------------


    POTLOK:  cpu time    0.0620: real time    0.0640
    SETDIJ:  cpu time    0.0040: real time    0.0039
    EDDIAG:  cpu time    0.0660: real time    0.0661
  RMM-DIIS:  cpu time    0.3020: real time    0.3024
    ORTHCH:  cpu time    0.0070: real time    0.0071
 BZINTS: Fermi energy: -3.787572; 18.000000 electrons
         Band energy:-161.214243;  BLOECHL correction:  0.000000
       DOS:  cpu time    0.0010: real time    0.0002
    CHARGE:  cpu time    0.0310: real time    0.0318
    MIXING:  cpu time    0.0030: real time    0.0023
    --------------------------------------------
      LOOP:  cpu time    0.4759: real time    0.4779

 eigenvalue-minimisations  :   290
 total energy-change (2. order) : 0.3851511E+00  (-0.5523045E-01)
 number of electron      17.9999996 magnetization 
 augmentation part       -0.5981622 magnetization 

 Broyden mixing:
  rms(total) = 0.14982E+00    rms(broyden)= 0.14982E+00
  rms(prec ) = 0.15816E+00
  weight for this iteration     100.00

 eigenvalues of (default mixing * dielectric matrix)
  average eigenvalue GAMMA=   1.3609
  0.6662  2.0556

 Free energy of the ion-electron system (eV)
  ---------------------------------------------------
  alpha Z        PSCENC =        12.51390764
  Ewald energy   TEWEN  =      4286.25630342
  -Hartree energ DENC   =     -4971.44023628
  -exchange      EXHF   =         0.00000000
  -V(xc)+E(xc)   XCENC  =       -35.56613805
  PAW double counting   =       441.26374988     -364.83965052
  entropy T*S    EENTRO =         0.00000000
  eigenvalues    EBANDS =      -161.21424298
  atomic energy  EATOM  =       771.16194735
  Solvation  Ediel_sol  =         0.00000000
  ---------------------------------------------------
  free energy    TOTEN  =       -21.86435954 eV

  energy without entropy =      -21.86435954  energy(sigma->0) =      -21.86435954


--------------------------------------------------------------------------------------------------------




--------------------------------------- Iteration      1(   8)  ---------------------------------------


    POTLOK:  cpu time    0.0600: real time    0.0617
    SETDIJ:  cpu time    0.0050: real time    0.0039
    EDDIAG:  cpu time    0.0660: real time    0.0661
  RMM-DIIS:  cpu time    0.3240: real time    0.3234
    ORTHCH:  cpu time    0.0060: real time    0.0071
 BZINTS: Fermi energy: -3.707204; 18.000000 electrons
         Band energy:-157.005815;  BLOECHL correction:  0.000000
       DOS:  cpu time    0.0000: real time    0.0002
    CHARGE:  cpu time    0.0320: real time    0.0316
    MIXING:  cpu time    0.0030: real time    0.0032
    --------------------------------------------
      LOOP:  cpu time    0.4959: real time    0.4972

 eigenvalue-minimisations  :   309
 total energy-change (2. order) : 0.5985098E-01  (-0.2326495E-01)
 number of electron      17.9999996 magnetization 
 augmentation part       -0.5513777 magnetization 

 Broyden mixing:
  rms(total) = 0.35567E-01    rms(broyden)= 0.35567E-01
  rms(prec ) = 0.37914E-01
  weight for this iteration     100.00

 eigenvalues of (default mixing * dielectric matrix)
  average eigenvalue GAMMA=   1.4997
  1.9171  1.9171  0.6649

 Free energy of the ion-electron system (eV)
  ---------------------------------------------------
  alpha Z        PSCENC =        12.51390764
  Ewald energy   TEWEN  =      4286.25630342
  -Hartree energ DENC   =     -4975.34409472
  -exchange      EXHF   =         0.00000000
  -V(xc)+E(xc)   XCENC  =       -35.29498552
  PAW double counting   =       464.72753040     -388.81930222
  entropy T*S    EENTRO =         0.00000000
  eigenvalues    EBANDS =      -157.00581491
  atomic energy  EATOM  =       771.16194735
  Solvation  Ediel_sol  =         0.00000000
  ---------------------------------------------------
  free energy    TOTEN  =       -21.80450856 eV

  energy without entropy =      -21.80450856  energy(sigma->0) =      -21.80450856


--------------------------------------------------------------------------------------------------------




--------------------------------------- Iteration      1(   9)  ---------------------------------------


    POTLOK:  cpu time    0.0620: real time    0.0617
    SETDIJ:  cpu time    0.0040: real time    0.0039
    EDDIAG:  cpu time    0.0660: real time    0.0660
  RMM-DIIS:  cpu time    0.3509: real time    0.3513
    ORTHCH:  cpu time    0.0070: real time    0.0072
 BZINTS: Fermi energy: -3.634950; 18.000000 electrons
         Band energy:-155.682053;  BLOECHL correction:  0.000000
       DOS:  cpu time    0.0000: real time    0.0002
    CHARGE:  cpu time    0.0320: real time    0.0316
    MIXING:  cpu time    0.0030: real time    0.0025
    --------------------------------------------
      LOOP:  cpu time    0.5249: real time    0.5244

 eigenvalue-minimisations  :   333
 total energy-change (2. order) : 0.4839518E-02  (-0.8812493E-03)
 number of electron      17.9999996 magnetization 
 augmentation part       -0.5459996 magnetization 

 Broyden mixing:
  rms(total) = 0.96632E-02    rms(broyden)= 0.96631E-02
  rms(prec ) = 0.11921E-01
  weight for this iteration     100.00

 eigenvalues of (default mixing * dielectric matrix)
  average eigenvalue GAMMA=   1.5077
  0.6674  1.0475  2.4354  1.8804

 Free energy of the ion-electron system (eV)
  ---------------------------------------------------
  alpha Z        PSCENC =        12.51390764
  Ewald energy   TEWEN  =      4286.25630342
  -Hartree energ DENC   =     -4976.63676113
  -exchange      EXHF   =         0.00000000
  -V(xc)+E(xc)   XCENC  =       -35.24033471
  PAW double counting   =       470.14612790     -394.31880669
  entropy T*S    EENTRO =         0.00000000
  eigenvalues    EBANDS =      -155.68205283
  atomic energy  EATOM  =       771.16194735
  Solvation  Ediel_sol  =         0.00000000
  ---------------------------------------------------
  free energy    TOTEN  =       -21.79966905 eV

  energy without entropy =      -21.79966905  energy(sigma->0) =      -21.79966905


--------------------------------------------------------------------------------------------------------




--------------------------------------- Iteration      1(  10)  ---------------------------------------


    POTLOK:  cpu time    0.0600: real time    0.0660
    SETDIJ:  cpu time    0.0050: real time    0.0039
    EDDIAG:  cpu time    0.0650: real time    0.0654
  RMM-DIIS:  cpu time    0.3469: real time    0.3464
    ORTHCH:  cpu time    0.0060: real time    0.0071
 BZINTS: Fermi energy: -3.577405; 18.000000 electrons
         Band energy:-154.552485;  BLOECHL correction:  0.000000
       DOS:  cpu time    0.0000: real time    0.0002
    CHARGE:  cpu time    0.0320: real time    0.0315
    MIXING:  cpu time    0.0030: real time    0.0027
    --------------------------------------------
      LOOP:  cpu time    0.5179: real time    0.5232

 eigenvalue-minimisations  :   336
 total energy-change (2. order) : 0.7499191E-03  (-0.1748691E-03)
 number of electron      17.9999996 magnetization 
 augmentation part       -0.5506808 magnetization 

 Broyden mixing:
  rms(total) = 0.44373E-02    rms(broyden)= 0.44373E-02
  rms(prec ) = 0.60831E-02
  weight for this iteration     100.00

 eigenvalues of (default mixing * dielectric matrix)
  average eigenvalue GAMMA=   1.6675
  0.6680  1.0363  2.1659  2.2336  2.2336

 Free energy of the ion-electron system (eV)
  ---------------------------------------------------
  alpha Z        PSCENC =        12.51390764
  Ewald energy   TEWEN  =      4286.25630342
  -Hartree energ DENC   =     -4977.75663755
  -exchange      EXHF   =         0.00000000
  -V(xc)+E(xc)   XCENC  =       -35.21950791
  PAW double counting   =       472.37627185     -396.57871942
  entropy T*S    EENTRO =         0.00000000
  eigenvalues    EBANDS =      -154.55248451
  atomic energy  EATOM  =       771.16194735
  Solvation  Ediel_sol  =         0.00000000
  ---------------------------------------------------
  free energy    TOTEN  =       -21.79891913 eV

  energy without entropy =      -21.79891913  energy(sigma->0) =      -21.79891913


--------------------------------------------------------------------------------------------------------




--------------------------------------- Iteration      1(  11)  ---------------------------------------


    POTLOK:  cpu time    0.0600: real time    0.0608
    SETDIJ:  cpu time    0.0050: real time    0.0042
    EDDIAG:  cpu time    0.0650: real time    0.0655
  RMM-DIIS:  cpu time    0.3290: real time    0.3287
    ORTHCH:  cpu time    0.0070: real time    0.0077
 BZINTS: Fermi energy: -3.520157; 18.000000 electrons
         Band energy:-153.429186;  BLOECHL correction:  0.000000
       DOS:  cpu time    0.0010: real time    0.0002
    CHARGE:  cpu time    0.0320: real time    0.0323
    MIXING:  cpu time    0.0030: real time    0.0028
    --------------------------------------------
      LOOP:  cpu time    0.5019: real time    0.5022

 eigenvalue-minimisations  :   312
 total energy-change (2. order) : 0.8872030E-04  (-0.1699006E-03)
 number of electron      17.9999996 magnetization 
 augmentation part       -0.5468058 magnetization 

 Broyden mixing:
  rms(total) = 0.56290E-02    rms(broyden)= 0.56290E-02
  rms(prec ) = 0.64740E-02
  weight for this iteration     100.00

 eigenvalues of (default mixing * dielectric matrix)
  average eigenvalue GAMMA=   1.6714
  2.9137  2.6813  0.6687  0.9300  1.4174  1.4174

 Free energy of the ion-electron system (eV)
  ---------------------------------------------------
  alpha Z        PSCENC =        12.51390764
  Ewald energy   TEWEN  =      4286.25630342
  -Hartree energ DENC   =     -4978.90328204
  -exchange      EXHF   =         0.00000000
  -V(xc)+E(xc)   XCENC  =       -35.20572188
  PAW double counting   =       471.81133855     -396.00413710
  entropy T*S    EENTRO =         0.00000000
  eigenvalues    EBANDS =      -153.42918635
  atomic energy  EATOM  =       771.16194735
  Solvation  Ediel_sol  =         0.00000000
  ---------------------------------------------------
  free energy    TOTEN  =       -21.79883041 eV

  energy without entropy =      -21.79883041  energy(sigma->0) =      -21.79883041


--------------------------------------------------------------------------------------------------------




--------------------------------------- Iteration      1(  12)  ---------------------------------------


    POTLOK:  cpu time    0.0640: real time    0.0659
    SETDIJ:  cpu time    0.0040: real time    0.0042
    EDDIAG:  cpu time    0.0650: real time    0.0655
  RMM-DIIS:  cpu time    0.3190: real time    0.3183
    ORTHCH:  cpu time    0.0070: real time    0.0077
 BZINTS: Fermi energy: -3.484723; 18.000000 electrons
         Band energy:-152.768797;  BLOECHL correction:  0.000000
       DOS:  cpu time    0.0010: real time    0.0002
    CHARGE:  cpu time    0.0320: real time    0.0323
    MIXING:  cpu time    0.0030: real time    0.0030
    --------------------------------------------
      LOOP:  cpu time    0.4949: real time    0.4971

 eigenvalue-minimisations  :   303
 total energy-change (2. order) : 0.2191270E-03  (-0.5558295E-04)
 number of electron      17.9999996 magnetization 
 augmentation part       -0.5496731 magnetization 

 Broyden mixing:
  rms(total) = 0.17458E-02    rms(broyden)= 0.17458E-02
  rms(prec ) = 0.23401E-02
  weight for this iteration     100.00

 eigenvalues of (default mixing * dielectric matrix)
  average eigenvalue GAMMA=   1.9370
  3.8158  2.7113  2.7113  0.6687  0.9621  1.4555  1.2344

 Free energy of the ion-electron system (eV)
  ---------------------------------------------------
  alpha Z        PSCENC =        12.51390764
  Ewald energy   TEWEN  =      4286.25630342
  -Hartree energ DENC   =     -4979.56901274
  -exchange      EXHF   =         0.00000000
  -V(xc)+E(xc)   XCENC  =       -35.20250902
  PAW double counting   =       471.98917313     -396.17962384
  entropy T*S    EENTRO =         0.00000000
  eigenvalues    EBANDS =      -152.76879722
  atomic energy  EATOM  =       771.16194735
  Solvation  Ediel_sol  =         0.00000000
  ---------------------------------------------------
  free energy    TOTEN  =       -21.79861128 eV

  energy without entropy =      -21.79861128  energy(sigma->0) =      -21.79861128


--------------------------------------------------------------------------------------------------------




--------------------------------------- Iteration      1(  13)  ---------------------------------------


    POTLOK:  cpu time    0.0650: real time    0.0651
    SETDIJ:  cpu time    0.0040: real time    0.0042
    EDDIAG:  cpu time    0.0660: real time    0.0654
  RMM-DIIS:  cpu time    0.2900: real time    0.2906
    ORTHCH:  cpu time    0.0080: real time    0.0077
 BZINTS: Fermi energy: -3.446295; 18.000000 electrons
         Band energy:-152.057399;  BLOECHL correction:  0.000000
       DOS:  cpu time    0.0000: real time    0.0002
    CHARGE:  cpu time    0.0320: real time    0.0322
    MIXING:  cpu time    0.0040: real time    0.0031
    --------------------------------------------
      LOOP:  cpu time    0.4689: real time    0.4687

 eigenvalue-minimisations  :   286
 total energy-change (2. order) :-0.2778363E-03  (-0.1523960E-04)
 number of electron      17.9999996 magnetization 
 augmentation part       -0.5480610 magnetization 

 Broyden mixing:
  rms(total) = 0.20047E-02    rms(broyden)= 0.20047E-02
  rms(prec ) = 0.22591E-02
  weight for this iteration     100.00

 eigenvalues of (default mixing * dielectric matrix)
  average eigenvalue GAMMA=   1.9021
  4.7443  2.7019  2.3837  1.4178  1.4178  0.6688  0.9413  0.9413

 Free energy of the ion-electron system (eV)
  ---------------------------------------------------
  alpha Z        PSCENC =        12.51390764
  Ewald energy   TEWEN  =      4286.25630342
  -Hartree energ DENC   =     -4980.28243162
  -exchange      EXHF   =         0.00000000
  -V(xc)+E(xc)   XCENC  =       -35.19569661
  PAW double counting   =       471.93853821     -396.13405820
  entropy T*S    EENTRO =         0.00000000
  eigenvalues    EBANDS =      -152.05739932
  atomic energy  EATOM  =       771.16194735
  Solvation  Ediel_sol  =         0.00000000
  ---------------------------------------------------
  free energy    TOTEN  =       -21.79888912 eV

  energy without entropy =      -21.79888912  energy(sigma->0) =      -21.79888912


--------------------------------------------------------------------------------------------------------




--------------------------------------- Iteration      1(  14)  ---------------------------------------


    POTLOK:  cpu time    0.0650: real time    0.0655
    SETDIJ:  cpu time    0.0040: real time    0.0042
    EDDIAG:  cpu time    0.0660: real time    0.0655
  RMM-DIIS:  cpu time    0.2730: real time    0.2731
    ORTHCH:  cpu time    0.0070: real time    0.0077
 BZINTS: Fermi energy: -3.437309; 18.000000 electrons
         Band energy:-151.897968;  BLOECHL correction:  0.000000
       DOS:  cpu time    0.0010: real time    0.0002
    CHARGE:  cpu time    0.0320: real time    0.0322
    MIXING:  cpu time    0.0030: real time    0.0033
    --------------------------------------------
      LOOP:  cpu time    0.4509: real time    0.4517

 eigenvalue-minimisations  :   252
 total energy-change (2. order) :-0.3369602E-04  (-0.2644252E-05)
 number of electron      17.9999996 magnetization 
 augmentation part       -0.5492188 magnetization 

 Broyden mixing:
  rms(total) = 0.49741E-03    rms(broyden)= 0.49741E-03
  rms(prec ) = 0.68690E-03
  weight for this iteration     100.00

 eigenvalues of (default mixing * dielectric matrix)
  average eigenvalue GAMMA=   2.1597
  6.4418  2.9562  2.3900  2.3900  1.5041  0.6688  1.1870  0.9497  0.9497

 Free energy of the ion-electron system (eV)
  ---------------------------------------------------
  alpha Z        PSCENC =        12.51390764
  Ewald energy   TEWEN  =      4286.25630342
  -Hartree energ DENC   =     -4980.44432169
  -exchange      EXHF   =         0.00000000
  -V(xc)+E(xc)   XCENC  =       -35.19781331
  PAW double counting   =       471.75758643     -395.94856492
  entropy T*S    EENTRO =         0.00000000
  eigenvalues    EBANDS =      -151.89796774
  atomic energy  EATOM  =       771.16194735
  Solvation  Ediel_sol  =         0.00000000
  ---------------------------------------------------
  free energy    TOTEN  =       -21.79892281 eV

  energy without entropy =      -21.79892281  energy(sigma->0) =      -21.79892281


--------------------------------------------------------------------------------------------------------




--------------------------------------- Iteration      1(  15)  ---------------------------------------


    POTLOK:  cpu time    0.0670: real time    0.0702
    SETDIJ:  cpu time    0.0050: real time    0.0042
    EDDIAG:  cpu time    0.0650: real time    0.0654
  RMM-DIIS:  cpu time    0.2260: real time    0.2262
    ORTHCH:  cpu time    0.0080: real time    0.0077
 BZINTS: Fermi energy: -3.428077; 18.000000 electrons
         Band energy:-151.741854;  BLOECHL correction:  0.000000
       DOS:  cpu time    0.0000: real time    0.0002
    CHARGE:  cpu time    0.0320: real time    0.0322
    MIXING:  cpu time    0.0040: real time    0.0035
    --------------------------------------------
      LOOP:  cpu time    0.4069: real time    0.4096

 eigenvalue-minimisations  :   195
 total energy-change (2. order) :-0.1111630E-03  (-0.1141771E-05)
 number of electron      17.9999996 magnetization 
 augmentation part       -0.5490024 magnetization 

 Broyden mixing:
  rms(total) = 0.28036E-03    rms(broyden)= 0.28036E-03
  rms(prec ) = 0.37423E-03
  weight for this iteration     100.00

 eigenvalues of (default mixing * dielectric matrix)
  average eigenvalue GAMMA=   2.1411
  6.4909  3.5600  2.6170  1.7653  1.7653  1.5415  0.6688  1.0579  1.0119  0.9325

 Free energy of the ion-electron system (eV)
  ---------------------------------------------------
  alpha Z        PSCENC =        12.51390764
  Ewald energy   TEWEN  =      4286.25630342
  -Hartree energ DENC   =     -4980.60062642
  -exchange      EXHF   =         0.00000000
  -V(xc)+E(xc)   XCENC  =       -35.19766200
  PAW double counting   =       471.78216112     -395.97321135
  entropy T*S    EENTRO =         0.00000000
  eigenvalues    EBANDS =      -151.74185373
  atomic energy  EATOM  =       771.16194735
  Solvation  Ediel_sol  =         0.00000000
  ---------------------------------------------------
  free energy    TOTEN  =       -21.79903397 eV

  energy without entropy =      -21.79903397  energy(sigma->0) =      -21.79903397


--------------------------------------------------------------------------------------------------------




--------------------------------------- Iteration      1(  16)  ---------------------------------------


    POTLOK:  cpu time    0.0670: real time    0.0672
    SETDIJ:  cpu time    0.0040: real time    0.0040
    EDDIAG:  cpu time    0.0650: real time    0.0655
  RMM-DIIS:  cpu time    0.2280: real time    0.2269
    ORTHCH:  cpu time    0.0070: real time    0.0076
 BZINTS: Fermi energy: -3.424133; 18.000000 electrons
         Band energy:-151.679264;  BLOECHL correction:  0.000000
       DOS:  cpu time    0.0000: real time    0.0002
    CHARGE:  cpu time    0.0320: real time    0.0321
    MIXING:  cpu time    0.0040: real time    0.0037
    --------------------------------------------
      LOOP:  cpu time    0.4069: real time    0.4073

 eigenvalue-minimisations  :   187
 total energy-change (2. order) :-0.3477920E-04  (-0.4510551E-06)
 number of electron      17.9999996 magnetization 
 augmentation part       -0.5491281 magnetization 

 Broyden mixing:
  rms(total) = 0.17064E-03    rms(broyden)= 0.17064E-03
  rms(prec ) = 0.21712E-03
  weight for this iteration     100.00

 eigenvalues of (default mixing * dielectric matrix)
  average eigenvalue GAMMA=   2.2935
  7.2967  3.8718  2.9799  2.6171  2.1581  1.5511  0.6688  1.1223  1.0638  0.9771
  0.9215

 Free energy of the ion-electron system (eV)
  ---------------------------------------------------
  alpha Z        PSCENC =        12.51390764
  Ewald energy   TEWEN  =      4286.25630342
  -Hartree energ DENC   =     -4980.66233132
  -exchange      EXHF   =         0.00000000
  -V(xc)+E(xc)   XCENC  =       -35.19752026
  PAW double counting   =       471.83877030     -396.03088160
  entropy T*S    EENTRO =         0.00000000
  eigenvalues    EBANDS =      -151.67926429
  atomic energy  EATOM  =       771.16194735
  Solvation  Ediel_sol  =         0.00000000
  ---------------------------------------------------
  free energy    TOTEN  =       -21.79906875 eV

  energy without entropy =      -21.79906875  energy(sigma->0) =      -21.79906875


--------------------------------------------------------------------------------------------------------




--------------------------------------- Iteration      1(  17)  ---------------------------------------


    POTLOK:  cpu time    0.0650: real time    0.0658
    SETDIJ:  cpu time    0.0050: real time    0.0040
    EDDIAG:  cpu time    0.0650: real time    0.0654
  RMM-DIIS:  cpu time    0.2000: real time    0.2001
    ORTHCH:  cpu time    0.0080: real time    0.0076
 BZINTS: Fermi energy: -3.422394; 18.000000 electrons
         Band energy:-151.641643;  BLOECHL correction:  0.000000
       DOS:  cpu time    0.0000: real time    0.0002
    CHARGE:  cpu time    0.0330: real time    0.0327
    MIXING:  cpu time    0.0040: real time    0.0039
    --------------------------------------------
      LOOP:  cpu time    0.3799: real time    0.3797

 eigenvalue-minimisations  :   163
 total energy-change (2. order) :-0.4458200E-04  (-0.3291530E-06)
 number of electron      17.9999996 magnetization 
 augmentation part       -0.5491436 magnetization 

 Broyden mixing:
  rms(total) = 0.13873E-03    rms(broyden)= 0.13873E-03
  rms(prec ) = 0.16043E-03
  weight for this iteration     100.00

 eigenvalues of (default mixing * dielectric matrix)
  average eigenvalue GAMMA=   2.3184
  7.7244  4.9600  2.9199  2.4814  2.1221  1.4904  1.4904  0.6688  1.0497  1.0497
  0.9321  0.9321

 Free energy of the ion-electron system (eV)
  ---------------------------------------------------
  alpha Z        PSCENC =        12.51390764
  Ewald energy   TEWEN  =      4286.25630342
  -Hartree energ DENC   =     -4980.70083146
  -exchange      EXHF   =         0.00000000
  -V(xc)+E(xc)   XCENC  =       -35.19766512
  PAW double counting   =       471.79391591     -395.98504784
  entropy T*S    EENTRO =         0.00000000
  eigenvalues    EBANDS =      -151.64164325
  atomic energy  EATOM  =       771.16194735
  Solvation  Ediel_sol  =         0.00000000
  ---------------------------------------------------
  free energy    TOTEN  =       -21.79911334 eV

  energy without entropy =      -21.79911334  energy(sigma->0) =      -21.79911334


--------------------------------------------------------------------------------------------------------




--------------------------------------- Iteration      1(  18)  ---------------------------------------


    POTLOK:  cpu time    0.0640: real time    0.0677
    SETDIJ:  cpu time    0.0050: real time    0.0040
    EDDIAG:  cpu time    0.0650: real time    0.0655
  RMM-DIIS:  cpu time    0.1750: real time    0.1744
    ORTHCH:  cpu time    0.0080: real time    0.0076
 BZINTS: Fermi energy: -3.422529; 18.000000 electrons
         Band energy:-151.642594;  BLOECHL correction:  0.000000
       DOS:  cpu time    0.0000: real time    0.0002
    --------------------------------------------
      LOOP:  cpu time    0.3170: real time    0.3193

 eigenvalue-minimisations  :    84
 total energy-change (2. order) :-0.7549463E-05  (-0.4493836E-07)
 number of electron      17.9999996 magnetization 
 augmentation part       -0.5491436 magnetization 

 Free energy of the ion-electron system (eV)
  ---------------------------------------------------
  alpha Z        PSCENC =        12.51390764
  Ewald energy   TEWEN  =      4286.25630342
  -Hartree energ DENC   =     -4980.69970540
  -exchange      EXHF   =         0.00000000
  -V(xc)+E(xc)   XCENC  =       -35.19764818
  PAW double counting   =       471.80294895     -395.99428084
  entropy T*S    EENTRO =         0.00000000
  eigenvalues    EBANDS =      -151.64259384
  atomic energy  EATOM  =       771.16194735
  Solvation  Ediel_sol  =         0.00000000
  ---------------------------------------------------
  free energy    TOTEN  =       -21.79912089 eV

  energy without entropy =      -21.79912089  energy(sigma->0) =      -21.79912089


--------------------------------------------------------------------------------------------------------




 average (electrostatic) potential at core
  the test charge radii are     1.2296  0.9698
  (the norm of the test charge is              1.0000)
       1 -46.8732       2 -94.7151       3 -94.7151
 
 
 
 E-fermi :  -3.4225     XC(G=0):  -2.8681     alpha+bet : -2.6672


 k-point     1 :       0.0000    0.0000    0.0000
  band No.  band energies     occupation 
      1     -17.4635      2.00000
      2     -16.2554      2.00000
      3      -8.9844      2.00000
      4      -6.0236      2.00000
      5      -6.0236      2.00000
      6      -5.1623      2.00000
      7      -4.9181      2.00000
      8      -4.9180      2.00000
      9      -3.4419      2.00000
     10      -0.6704      0.00000
     11      -0.6704      0.00000
     12      -0.4466      0.00000
     13      -0.4466      0.00000
     14       1.9926      0.00000

 k-point     2 :       0.1250    0.0000    0.0000
  band No.  band energies     occupation 
      1     -17.2493      2.00000
      2     -16.1530      2.00000
      3      -8.7399      2.00000
      4      -6.4870      2.00000
      5      -5.9704      2.00000
      6      -5.7892      2.00000
      7      -5.2538      2.00000
      8      -4.4848      2.00000
      9      -3.5803      2.00000
     10      -0.9504      0.00000
     11      -0.8846      0.00000
     12      -0.6832      0.00000
     13      -0.3156      0.00000
     14       2.3700      0.00000

 k-point     3 :       0.2500    0.0000    0.0000
  band No.  band energies     occupation 
      1     -16.6806      2.00000
      2     -15.8843      2.00000
      3      -8.3738      2.00000
      4      -7.2136      2.00000
      5      -6.9512      2.00000
      6      -5.8888      2.00000
      7      -5.2021      2.00000
      8      -4.7364      2.00000
      9      -4.1483      2.00000
     10      -1.2745      0.00000
     11      -1.0980      0.00000
     12      -0.5558      0.00000
     13       0.3014      0.00000
     14       3.1783      0.00000

 k-point     4 :       0.3750    0.0000    0.0000
  band No.  band energies     occupation 
      1     -16.0055      2.00000
      2     -15.5758      2.00000
      3      -8.8110      2.00000
      4      -7.8186      2.00000
      5      -7.3464      2.00000
      6      -6.3862      2.00000
      7      -5.1457      2.00000
      8      -4.6116      2.00000
      9      -4.3435      2.00000
     10      -1.2794      0.00000
     11      -1.0005      0.00000
     12       0.1627      0.00000
     13       0.6947      0.00000
     14       3.7015      0.00000

 k-point     5 :       0.5000    0.0000    0.0000
  band No.  band energies     occupation 
      1     -15.6772      2.00000
      2     -15.4325      2.00000
      3      -9.1437      2.00000
      4      -8.1835      2.00000
      5      -7.4727      2.00000
      6      -6.5667      2.00000
      7      -5.2845      2.00000
      8      -4.3845      2.00000
      9      -4.0627      2.00000
     10      -1.2571      0.00000
     11      -0.7411      0.00000
     12       0.4613      0.00000
     13       0.8102      0.00000
     14       2.7406      0.00000

 k-point     6 :       0.1250    0.1250    0.0000
  band No.  band energies     occupation 
      1     -16.8565      2.00000
      2     -15.9660      2.00000
      3      -8.3926      2.00000
      4      -7.0510      2.00000
      5      -6.5325      2.00000
      6      -6.0676      2.00000
      7      -5.4497      2.00000
      8      -4.3503      2.00000
      9      -3.9522      2.00000
     10      -1.3496      0.00000
     11      -0.9715      0.00000
     12      -0.9597      0.00000
     13       0.2793      0.00000
     14       2.9620      0.00000

 k-point     7 :       0.2500    0.1250    0.0000
  band No.  band energies     occupation 
      1     -16.2229      2.00000
      2     -15.6675      2.00000
      3      -8.4554      2.00000
      4      -7.4777      2.00000
      5      -7.2146      2.00000
      6      -6.5719      2.00000
      7      -5.3503      2.00000
      8      -4.7125      2.00000
      9      -4.2358      2.00000
     10      -1.4330      0.00000
     11      -0.9845      0.00000
     12      -0.4897      0.00000
     13       0.7871      0.00000
     14       3.9353      0.00000

 k-point     8 :       0.3750    0.1250    0.0000
  band No.  band energies     occupation 
      1     -15.6925      2.00000
      2     -15.4236      2.00000
      3      -8.8563      2.00000
      4      -8.2408      2.00000
      5      -7.3450      2.00000
      6      -6.5887      2.00000
      7      -5.3351      2.00000
      8      -5.1943      2.00000
      9      -3.9090      2.00000
     10      -1.2382      0.00000
     11      -0.7279      0.00000
     12       0.1320      0.00000
     13       0.8208      0.00000
     14       3.2674      0.00000

 k-point     9 :       0.2500    0.2500    0.0000
  band No.  band energies     occupation 
      1     -15.7074      2.00000
      2     -15.4146      2.00000
      3      -8.4959      2.00000
      4      -8.2916      2.00000
      5      -7.0178      2.00000
      6      -6.6371      2.00000
      7      -6.3179      2.00000
      8      -5.0609      2.00000
      9      -3.9378      2.00000
     10      -1.2892      0.00000
     11      -0.6782      0.00000
     12      -0.3665      0.00000
     13       1.1089      0.00000
     14       4.0998      0.00000

 k-point    10 :       0.3750    0.2500    0.0000
  band No.  band energies     occupation 
      1     -15.4725      2.00000
      2     -15.2954      2.00000
      3      -8.6760      2.00000
      4      -8.3269      2.00000
      5      -7.3022      2.00000
      6      -6.6396      2.00000
      7      -6.4094      2.00000
      8      -5.4472      2.00000
      9      -3.5704      2.00000
     10      -1.6149      0.00000
     11      -0.3082      0.00000
     12      -0.1276      0.00000
     13       1.2542      0.00000
     14       3.5104      0.00000


--------------------------------------------------------------------------------------------------------


 soft charge-density along one line, spin component           1
         0         1         2         3         4         5         6         7         8         9
 total charge-density along one line
 
 pseudopotential strength for first ion, spin component:           1
 -9.986  -0.000   0.000  -0.000   0.000   0.102   0.000  -0.000
 -0.000  -9.987  -0.000  -0.000  -0.000   0.000   0.102   0.000
  0.000  -0.000  -9.966  -0.000  -0.000  -0.000   0.000   0.101
 -0.000  -0.000  -0.000  -9.987  -0.000   0.000   0.000   0.000
  0.000  -0.000  -0.000  -0.000  -9.986  -0.000   0.000   0.000
  0.102   0.000  -0.000   0.000  -0.000   0.098  -0.000   0.000
  0.000   0.102   0.000   0.000   0.000  -0.000   0.098   0.000
 -0.000   0.000   0.101   0.000   0.000   0.000   0.000   0.098
  0.000   0.000   0.000   0.102   0.000   0.000  -0.000  -0.000
 -0.000   0.000   0.000   0.000   0.102   0.000  -0.000  -0.000
  0.000  -0.000  -0.005   0.000  -0.000  -0.000   0.000   0.000
 -0.000   0.000   0.001  -0.000   0.000   0.000  -0.000  -0.000
 -0.000   0.000  -0.000  -0.000  -0.007   0.000  -0.000   0.000
 -0.000   0.000   0.000  -0.000  -0.000  -0.000  -0.000  -0.000
 -0.007  -0.000   0.000   0.000  -0.000  -0.000  -0.000  -0.000
  0.000  -0.000   0.000   0.000   0.004  -0.000   0.000  -0.000
  0.000  -0.000  -0.000   0.000   0.000  -0.000   0.000   0.000
  0.004   0.000  -0.000  -0.000   0.000   0.000  -0.000   0.000
 total augmentation occupancy for first ion, spin component:           1
  0.965   0.000  -0.000   0.000  -0.000   0.595   0.000  -0.000   0.000  -0.000  -0.000   0.000   0.000   0.000  -0.065  -0.000
  0.000   0.907   0.000   0.000  -0.000  -0.000   0.833   0.000   0.000   0.000   0.000   0.000  -0.000   0.000  -0.000   0.000
 -0.000   0.000   1.029   0.000   0.000  -0.000   0.000   0.495   0.000   0.000   0.111  -0.019  -0.000  -0.000   0.000   0.000
  0.000   0.000  -0.000   0.907   0.000   0.000   0.000   0.000   0.833  -0.000   0.000   0.000   0.000   0.000  -0.000   0.000
 -0.000   0.000   0.000   0.000   0.965  -0.000   0.000   0.000  -0.000   0.595   0.000  -0.000  -0.065   0.000  -0.000   0.007
  0.595  -0.000  -0.000   0.000  -0.000   0.670   0.000  -0.000  -0.000  -0.000   0.000   0.000   0.000   0.000  -0.136  -0.000
 -0.000   0.833  -0.000   0.000  -0.000   0.000   1.069   0.000   0.000   0.000   0.000   0.000   0.000   0.000   0.000   0.000
 -0.000   0.000   0.495  -0.000   0.000  -0.000   0.000   0.470  -0.000   0.000   0.058  -0.021  -0.000  -0.000   0.000   0.000
  0.000   0.000   0.000   0.833   0.000  -0.000   0.000   0.000   1.069   0.000   0.000   0.000  -0.000  -0.000   0.000  -0.000
 -0.000   0.000   0.000   0.000   0.595  -0.000   0.000   0.000  -0.000   0.670   0.000  -0.000  -0.136   0.000  -0.000   0.023
 -0.000   0.000   0.111   0.000   0.000   0.000   0.000   0.058   0.000  -0.000   1.207  -0.186  -0.000   0.000  -0.000   0.000
  0.000   0.000  -0.019  -0.000  -0.000   0.000   0.000  -0.021   0.000   0.000  -0.186   0.042  -0.000  -0.000  -0.000   0.000
  0.000   0.000  -0.000   0.000  -0.065   0.000   0.000  -0.000   0.000  -0.136  -0.000   0.000   0.217   0.000   0.000  -0.032
  0.000   0.000  -0.000  -0.000   0.000   0.000   0.000   0.000  -0.000   0.000   0.000   0.000   0.000   0.264   0.000   0.000
 -0.065   0.000   0.000   0.000  -0.000  -0.136   0.000   0.000   0.000  -0.000  -0.000  -0.000   0.000   0.000   0.217  -0.000
 -0.000   0.000   0.000   0.000   0.007  -0.000  -0.000   0.000  -0.000   0.023   0.000   0.000  -0.032   0.000  -0.000   0.005
  0.000  -0.000  -0.000   0.000  -0.000   0.000   0.000  -0.000   0.000   0.000  -0.000   0.000   0.000  -0.038  -0.000   0.000
  0.007  -0.000  -0.000   0.000   0.000   0.023   0.000  -0.000  -0.000   0.000  -0.000   0.000  -0.000   0.000  -0.032   0.000


------------------------ aborting loop because EDIFF is reached ----------------------------------------


    CHARGE:  cpu time    0.0320: real time    0.0321
    FORLOC:  cpu time    0.0070: real time    0.0061
    FORNL :  cpu time    0.0560: real time    0.0566
    STRESS:  cpu time    0.3319: real time    0.3322
    FORCOR:  cpu time    0.0750: real time    0.0749
    FORHAR:  cpu time    0.0170: real time    0.0173
    MIXING:  cpu time    0.0040: real time    0.0041
    OFIELD:  cpu time    0.0000: real time    0.0000

  DFT-D2 method for vdW energy calculation
  -------------------------------------------------------------------

  Parameters of vdW forcefield:
         C6(Jnm^6/mol)     R0(A)
   -----------------------------
   Mo      24.670          1.639
   S        5.570          1.683

  IVDW =   1
  VDW_RADIUS =    50.000 A
  VDW_S6 =     0.750
  VDW_SR =     1.000
  VDW_D =    20.000
  LVDW_EWALD = F

  Number of pair interactions contributing to vdW energy:   12957
  Edisp (eV):   -0.59091
    FORVDW:  cpu time    0.0110: real time    0.0141

  FORCE on cell =-STRESS in cart. coord.  units (eV):
  Direction    XX          YY          ZZ          XY          YZ          ZX
  --------------------------------------------------------------------------------------
  Alpha Z    12.51391    12.51391    12.51391
  Ewald    4853.12264  4853.12308 -5419.98957     0.00019     0.00000     0.00012
  Hartree  4942.42587  4942.42588 -4904.14894     0.00002    -0.00000    -0.00000
  E(xc)     -70.30251   -70.30251   -70.90753    -0.00000     0.00000    -0.00000
  Local  -10076.21798-10076.21829 10037.50432    -0.00018    -0.00000    -0.00006
  n-local   127.16790   125.79131   131.68748    -0.25803    -0.00000    -0.00001
  augment   -25.56247   -25.56243   -26.66424     0.00004     0.00000    -0.00000
  Kinetic   235.85740   238.65834   239.77578    -7.40900     0.00001     0.00002
  Fock        0.00000     0.00000     0.00000     0.00000     0.00000     0.00000
  vdW         0.16041     0.16041    -0.13425     0.00000     0.00000    -0.00000
  -------------------------------------------------------------------------------------
  Total      -0.12256    -0.12256    -0.36304     0.00000     0.00000     0.00000
  in kB      -0.82883    -0.82883    -2.45498     0.00000     0.00000     0.00000
  external pressure =       -1.37 kB  Pullay stress =        0.00 kB


 VOLUME and BASIS-vectors are now :
 -----------------------------------------------------------------------------
  energy-cutoff  :      650.00
  volume of cell :      236.93
      direct lattice vectors                 reciprocal lattice vectors
     3.190315730  0.000000000  0.000000000     0.313448600  0.180969634  0.000000000
    -1.595157865  2.762894468  0.000000000     0.000000000  0.361939267  0.000000000
     0.000000000  0.000000000 26.879004300     0.000000000  0.000000000  0.037203759

  length of vectors
     3.190315730  3.190315730 26.879004300     0.361939267  0.361939267  0.037203759


 FORCES acting on ions
    electron-ion (+dipol)            ewald-force                    non-local-force                 convergence-correction
 -----------------------------------------------------------------------------------------------
   -.113E-04 -.769E-06 -.118E-05   0.931E-04 -.108E-03 0.307E-06   -.278E-16 0.000E+00 0.424E-21   0.976E-09 -.171E-08 -.972E-08
   -.854E-03 0.495E-03 0.579E+03   -.864E-04 0.538E-04 -.584E+03   0.226E-16 0.173E-16 0.480E+01   -.138E-07 0.718E-08 0.244E-02
   0.864E-03 0.494E-03 -.579E+03   -.674E-05 0.538E-04 0.584E+03   -.781E-17 0.208E-16 -.480E+01   0.122E-07 0.718E-08 -.244E-02
 -----------------------------------------------------------------------------------------------
   -.718E-06 0.989E-03 0.308E-04   0.897E-14 0.972E-14 -.114E-12   -.130E-16 0.382E-16 0.888E-15   -.701E-09 0.126E-07 -.277E-07
 
 
 POSITION                                       TOTAL-FORCE (eV/Angst)
 -----------------------------------------------------------------------------------
     -0.00000      1.84193      3.71975         0.000000      0.000000      0.000000
      1.59516      0.92096      2.15487        -0.000000      0.000000      0.114575
      1.59516      0.92096      5.28464        -0.000000     -0.000000     -0.114575
 -----------------------------------------------------------------------------------
    total drift:                               -0.000001      0.000989      0.000031


--------------------------------------------------------------------------------------------------------



  FREE ENERGIE OF THE ION-ELECTRON SYSTEM (eV)
  ---------------------------------------------------
  free  energy   TOTEN  =       -22.39002995 eV

  energy  without entropy=      -22.39002995  energy(sigma->0) =      -22.39002995
 


--------------------------------------------------------------------------------------------------------


    POTLOK:  cpu time    0.0690: real time    0.0688


--------------------------------------------------------------------------------------------------------


     LOOP+:  cpu time    9.4276: real time   10.5336
    4ORBIT:  cpu time    0.0000: real time    0.0000
 BZINTS: Fermi energy: -3.422529; 18.000000 electrons
         Band energy:-151.642594;  BLOECHL correction:  0.000000

 total amount of memory used by VASP MPI-rank0    62867. kBytes
=======================================================================

   base      :      30000. kBytes
   nonl-proj :      13269. kBytes
   fftplans  :       5558. kBytes
   grid      :       8905. kBytes
   one-center:         31. kBytes
   wavefun   :       5104. kBytes
 
  
  
 General timing and accounting informations for this job:
 ========================================================
  
                  Total CPU time used (sec):       10.727
                            User time (sec):       10.392
                          System time (sec):        0.335
                         Elapsed time (sec):       13.747
  
                   Maximum memory used (kb):       59828.
                   Average memory used (kb):           0.
  
                          Minor page faults:        17078
                          Major page faults:          182
                 Voluntary context switches:         2697
