perl: warning: Setting locale failed.
perl: warning: Please check that your locale settings:
	LANGUAGE = (unset),
	LC_ALL = (unset),
	LC_CTYPE = "UTF-8",
	LANG = "en_US.iso885915"
    are supported and installed on your system.
perl: warning: Falling back to the standard locale ("C").
Starting job 28532694 ("jobname") on c15-7 at Fri Nov 8 11:59:20 CET 2019
 running on    4 total cores
 distrk:  each k-point on    4 cores,    1 groups
 distr:  one band on    2 cores,    2 groups
 using from now: INCAR     
 vasp.5.4.4.18Apr17-6-g9f103f2a35 (build Jun 30 2017 11:15:00) complex          
  
 POSCAR found type information on POSCAR  Mo S 
 POSCAR found :  2 types and       3 ions
 scaLAPACK will be used
 LDA part: xc-table for Pade appr. of Perdew
 POSCAR, INCAR and KPOINTS ok, starting setup
 FFT: planning ...
 WAVECAR not read
 entering main loop
       N       E                     dE             d eps       ncg     rms          rms(c)
DAV:   1     0.146649350964E+03    0.14665E+03   -0.65422E+03   280   0.109E+03
DAV:   2    -0.514668359308E+01   -0.15180E+03   -0.14354E+03   486   0.182E+02
DAV:   3    -0.230241048985E+02   -0.17877E+02   -0.17708E+02   394   0.776E+01
DAV:   4    -0.234005986203E+02   -0.37649E+00   -0.37538E+00   356   0.142E+01
DAV:   5    -0.234097731500E+02   -0.91745E-02   -0.91724E-02   370   0.213E+00    0.689E+00
RMM:   6    -0.222495105992E+02    0.11603E+01   -0.54390E+00   295   0.125E+01    0.261E+00
RMM:   7    -0.218643595394E+02    0.38515E+00   -0.55230E-01   290   0.341E+00    0.150E+00
RMM:   8    -0.218045085638E+02    0.59851E-01   -0.23265E-01   309   0.252E+00    0.356E-01
RMM:   9    -0.217996690460E+02    0.48395E-02   -0.88125E-03   333   0.614E-01    0.966E-02
RMM:  10    -0.217989191269E+02    0.74992E-03   -0.17487E-03   336   0.224E-01    0.444E-02
RMM:  11    -0.217988304066E+02    0.88720E-04   -0.16990E-03   312   0.195E-01    0.563E-02
RMM:  12    -0.217986112796E+02    0.21913E-03   -0.55583E-04   303   0.134E-01    0.175E-02
RMM:  13    -0.217988891159E+02   -0.27784E-03   -0.15240E-04   286   0.718E-02    0.200E-02
RMM:  14    -0.217989228119E+02   -0.33696E-04   -0.26443E-05   252   0.287E-02    0.497E-03
RMM:  15    -0.217990339750E+02   -0.11116E-03   -0.11418E-05   195   0.177E-02    0.280E-03
RMM:  16    -0.217990687542E+02   -0.34779E-04   -0.45106E-06   187   0.946E-03    0.171E-03
RMM:  17    -0.217991133362E+02   -0.44582E-04   -0.32915E-06   163   0.799E-03    0.139E-03
RMM:  18    -0.217991208856E+02   -0.75495E-05   -0.44938E-07    84   0.409E-03
   1 F= -.22390030E+02 E0= -.22390030E+02  d E =0.000000E+00

Currently Loaded Modulefiles:
  1) Anaconda3/5.1.0       3) vesta/3.3.8           5) intel/2016.1
  2) gnuplot/5.0.4         4) imagemagick/6.7.9-0   6) vasp/5.4.1.Feb16

Job script resource usage:
       JobID  MaxVMSize     MaxRSS 
------------ ---------- ---------- 
28532694.ba+    216888K      2301K 

Job step resource usage:
       JobID    JobName  AllocCPUS  MaxVMSize     MaxRSS    Elapsed ExitCode 
------------ ---------- ---------- ---------- ---------- ---------- -------- 
28532694        jobname          4                         00:00:16      0:0 
28532694.0    pmi_proxy          1    279832K       523K   00:00:15      0:0 

Job 28532694 ("jobname") completed on c15-7 at Fri Nov 8 11:59:35 CET 2019
