<?xml version="1.0" encoding="ISO-8859-1"?>
<modeling>
 <generator>
  <i name="program" type="string">vasp </i>
  <i name="version" type="string">5.4.4.18Apr17-6-g9f103f2a35  </i>
  <i name="subversion" type="string">(build Jun 30 2017 11:15:00) complex            parallel </i>
  <i name="platform" type="string">STALLO_VASP_5.4.4 </i>
  <i name="date" type="string">2019 11 08 </i>
  <i name="time" type="string">11:59:21 </i>
 </generator>
 <incar>
  <i type="string" name="PREC">normal    ! low/normal/accurate</i>
  <i type="string" name="ALGO"> Fast      ! Algorithm for electronic re</i>
  <i type="int" name="ISPIN">     1</i>
  <i type="int" name="NELMIN">     4</i>
  <i name="EDIFF">      0.00001000</i>
  <i type="int" name="NSW">     0</i>
  <i name="ENCUT">    650.00000000</i>
  <i type="logical" name="LREAL"> F  </i>
  <i type="int" name="ISMEAR">    -5</i>
  <i name="SIGMA">      0.20000000</i>
  <i type="logical" name="LWAVE"> F  </i>
  <v type="int" name="KPOINT_BSE">    -1     0     0     0</v>
 </incar>
 <structure name="primitive_cell" >
  <crystal>
   <varray name="basis" >
    <v>       3.19031573       0.00000000       0.00000000 </v>
    <v>      -1.59515786       2.76289447       0.00000000 </v>
    <v>       0.00000000       0.00000000      26.87900430 </v>
   </varray>
   <i name="volume">    236.92513614 </i>
   <varray name="rec_basis" >
    <v>       0.31344860       0.18096963       0.00000000 </v>
    <v>       0.00000000       0.36193927       0.00000000 </v>
    <v>       0.00000000       0.00000000       0.03720376 </v>
   </varray>
  </crystal>
  <varray name="positions" >
   <v>       0.33333300      -0.33333300       0.13838872 </v>
   <v>      -0.33333400       0.33333300       0.19660830 </v>
   <v>      -0.33333300       0.33333300       0.08016914 </v>
  </varray>
 </structure>
 <varray name="primitive_index" >
  <v type="int" >        1 </v>
  <v type="int" >        3 </v>
  <v type="int" >        2 </v>
 </varray>
 <kpoints>
  <generation param="Gamma">
   <v type="int" name="divisions">       8        8        1 </v>
   <v name="usershift">      0.00000000       0.00000000       0.00000000 </v>
   <v name="genvec1">      0.12500000       0.00000000       0.00000000 </v>
   <v name="genvec2">      0.00000000       0.12500000       0.00000000 </v>
   <v name="genvec3">      0.00000000       0.00000000       1.00000000 </v>
   <v name="shift">      0.00000000       0.00000000       0.00000000 </v>
  </generation>
  <varray name="kpointlist" >
   <v>       0.00000000       0.00000000       0.00000000 </v>
   <v>       0.12500000       0.00000000       0.00000000 </v>
   <v>       0.25000000       0.00000000       0.00000000 </v>
   <v>       0.37500000       0.00000000       0.00000000 </v>
   <v>       0.50000000       0.00000000       0.00000000 </v>
   <v>       0.12500000       0.12500000       0.00000000 </v>
   <v>       0.25000000       0.12500000       0.00000000 </v>
   <v>       0.37500000       0.12500000       0.00000000 </v>
   <v>       0.25000000       0.25000000       0.00000000 </v>
   <v>       0.37500000       0.25000000       0.00000000 </v>
  </varray>
  <varray name="weights" >
   <v>       0.01562500 </v>
   <v>       0.09375000 </v>
   <v>       0.09375000 </v>
   <v>       0.09375000 </v>
   <v>       0.04687500 </v>
   <v>       0.09375000 </v>
   <v>       0.18750000 </v>
   <v>       0.18750000 </v>
   <v>       0.09375000 </v>
   <v>       0.09375000 </v>
  </varray>
  <varray name="tetrahedronlist"  type="int" >
   <v type="int" >       12        2        2        2        6 </v>
   <v type="int" >       12        1        2        2        2 </v>
   <v type="int" >        6        1        1        2        2 </v>
   <v type="int" >        6        2        2        6        6 </v>
   <v type="int" >       12        3        6        6        7 </v>
   <v type="int" >       12        2        3        6        6 </v>
   <v type="int" >       12        2        2        3        6 </v>
   <v type="int" >       12        3        6        7        7 </v>
   <v type="int" >       12        3        3        6        7 </v>
   <v type="int" >       12        2        3        3        6 </v>
   <v type="int" >       12        4        7        7        8 </v>
   <v type="int" >       12        3        4        7        7 </v>
   <v type="int" >       12        3        3        4        7 </v>
   <v type="int" >       12        4        7        8        8 </v>
   <v type="int" >       12        4        4        7        8 </v>
   <v type="int" >       12        3        4        4        7 </v>
   <v type="int" >       12        5        8        8        8 </v>
   <v type="int" >       12        4        5        8        8 </v>
   <v type="int" >       12        4        4        5        8 </v>
   <v type="int" >        6        5        5        8        8 </v>
   <v type="int" >       12        4        5        5        8 </v>
   <v type="int" >       12        7        7        7        9 </v>
   <v type="int" >       12        6        7        7        7 </v>
   <v type="int" >        6        6        6        7        7 </v>
   <v type="int" >        6        7        7        9        9 </v>
   <v type="int" >       12        8        9        9       10 </v>
   <v type="int" >       12        7        8        9        9 </v>
   <v type="int" >       12        7        7        8        9 </v>
   <v type="int" >       12        8        9       10       10 </v>
   <v type="int" >       12        8        8        9       10 </v>
   <v type="int" >       12        7        8        8        9 </v>
   <v type="int" >        6        8        8       10       10 </v>
   <v type="int" >       12        8        8        8       10 </v>
   <v type="int" >        6       10       10       10       10 </v>
   <v type="int" >       12        9       10       10       10 </v>
   <v type="int" >        6        9        9       10       10 </v>
  </varray>
  <i name="volumeweight">      0.00260417 </i>
 </kpoints>
 <parameters>
  <separator name="general" >
   <i type="string" name="SYSTEM">unknown system</i>
   <i type="logical" name="LCOMPAT"> F  </i>
  </separator>
  <separator name="electronic" >
   <i type="string" name="PREC">normal</i>
   <i name="ENMAX">    650.00000000</i>
   <i name="ENAUG">    345.27800000</i>
   <i name="EDIFF">      0.00001000</i>
   <i type="int" name="IALGO">    68</i>
   <i type="int" name="IWAVPR">    10</i>
   <i type="int" name="NBANDS">    14</i>
   <i name="NELECT">     18.00000000</i>
   <i type="int" name="TURBO">     0</i>
   <i type="int" name="IRESTART">     0</i>
   <i type="int" name="NREBOOT">     0</i>
   <i type="int" name="NMIN">     0</i>
   <i name="EREF">      0.00000000</i>
   <separator name="electronic smearing" >
    <i type="int" name="ISMEAR">    -5</i>
    <i name="SIGMA">      0.20000000</i>
    <i name="KSPACING">      0.50000000</i>
    <i type="logical" name="KGAMMA"> T  </i>
   </separator>
   <separator name="electronic projectors" >
    <i type="logical" name="LREAL"> F  </i>
    <v name="ROPT">      0.00000000      0.00000000</v>
    <i type="int" name="LMAXPAW">  -100</i>
    <i type="int" name="LMAXMIX">     2</i>
    <i type="logical" name="NLSPLINE"> F  </i>
   </separator>
   <separator name="electronic startup" >
    <i type="int" name="ISTART">     0</i>
    <i type="int" name="ICHARG">     2</i>
    <i type="int" name="INIWAV">     1</i>
   </separator>
   <separator name="electronic spin" >
    <i type="int" name="ISPIN">     1</i>
    <i type="logical" name="LNONCOLLINEAR"> F  </i>
    <v name="MAGMOM">      1.00000000      1.00000000      1.00000000</v>
    <i name="NUPDOWN">     -1.00000000</i>
    <i type="logical" name="LSORBIT"> F  </i>
    <v name="SAXIS">      0.00000000      0.00000000      1.00000000</v>
    <i type="logical" name="LSPIRAL"> F  </i>
    <v name="QSPIRAL">      0.00000000      0.00000000      0.00000000</v>
    <i type="logical" name="LZEROZ"> F  </i>
   </separator>
   <separator name="electronic exchange-correlation" >
    <i type="logical" name="LASPH"> F  </i>
    <i type="logical" name="LMETAGGA"> F  </i>
   </separator>
   <separator name="electronic convergence" >
    <i type="int" name="NELM">    60</i>
    <i type="int" name="NELMDL">    -5</i>
    <i type="int" name="NELMIN">     4</i>
    <i name="ENINI">    650.00000000</i>
    <separator name="electronic convergence detail" >
     <i type="logical" name="LDIAG"> T  </i>
     <i type="logical" name="LSUBROT"> F  </i>
     <i name="WEIMIN">      0.00000000</i>
     <i name="EBREAK">      0.00000018</i>
     <i name="DEPER">      0.30000000</i>
     <i type="int" name="NRMM">     4</i>
     <i name="TIME">      0.40000000</i>
    </separator>
   </separator>
   <separator name="electronic mixer" >
    <i name="AMIX">      0.40000000</i>
    <i name="BMIX">      1.00000000</i>
    <i name="AMIN">      0.10000000</i>
    <i name="AMIX_MAG">      1.60000000</i>
    <i name="BMIX_MAG">      1.00000000</i>
    <separator name="electronic mixer details" >
     <i type="int" name="IMIX">     4</i>
     <i type="logical" name="MIXFIRST"> F  </i>
     <i type="int" name="MAXMIX">   -45</i>
     <i name="WC">    100.00000000</i>
     <i type="int" name="INIMIX">     1</i>
     <i type="int" name="MIXPRE">     1</i>
     <i type="int" name="MREMOVE">     5</i>
    </separator>
   </separator>
   <separator name="electronic dipolcorrection" >
    <i type="logical" name="LDIPOL"> F  </i>
    <i type="logical" name="LMONO"> F  </i>
    <i type="int" name="IDIPOL">     0</i>
    <i name="EPSILON">      1.00000000</i>
    <v name="DIPOL">   -100.00000000   -100.00000000   -100.00000000</v>
    <i name="EFIELD">      0.00000000</i>
   </separator>
  </separator>
  <separator name="grids" >
   <i type="int" name="NGX">    20</i>
   <i type="int" name="NGY">    20</i>
   <i type="int" name="NGZ">   168</i>
   <i type="int" name="NGXF">    40</i>
   <i type="int" name="NGYF">    40</i>
   <i type="int" name="NGZF">   336</i>
   <i type="logical" name="ADDGRID"> F  </i>
  </separator>
  <separator name="ionic" >
   <i type="int" name="NSW">     0</i>
   <i type="int" name="IBRION">    -1</i>
   <i type="int" name="MDALGO">     0</i>
   <i type="int" name="ISIF">     2</i>
   <i name="PSTRESS">      0.00000000</i>
   <i name="EDIFFG">      0.00010000</i>
   <i type="int" name="NFREE">     0</i>
   <i name="POTIM">      0.50000000</i>
   <i name="SMASS">     -3.00000000</i>
   <i name="SCALEE">      1.00000000</i>
  </separator>
  <separator name="ionic md" >
   <i name="TEBEG">      0.00010000</i>
   <i name="TEEND">      0.00010000</i>
   <i type="int" name="NBLOCK">     1</i>
   <i type="int" name="KBLOCK">     1</i>
   <i type="int" name="NPACO">   256</i>
   <i name="APACO">     16.00000000</i>
  </separator>
  <separator name="symmetry" >
   <i type="int" name="ISYM">     2</i>
   <i name="SYMPREC">      0.00001000</i>
  </separator>
  <separator name="dos" >
   <i type="int" name="LORBIT">     0</i>
   <v name="RWIGS">     -1.00000000     -1.00000000</v>
   <i type="int" name="NEDOS">   301</i>
   <i name="EMIN">     10.00000000</i>
   <i name="EMAX">    -10.00000000</i>
   <i name="EFERMI">      0.00000000</i>
  </separator>
  <separator name="writing" >
   <i type="int" name="NWRITE">     2</i>
   <i type="logical" name="LWAVE"> F  </i>
   <i type="logical" name="LDOWNSAMPLE"> F  </i>
   <i type="logical" name="LCHARG"> T  </i>
   <i type="logical" name="LPARD"> F  </i>
   <i type="logical" name="LVTOT"> F  </i>
   <i type="logical" name="LVHAR"> F  </i>
   <i type="logical" name="LELF"> F  </i>
   <i type="logical" name="LOPTICS"> F  </i>
   <v name="STM">      0.00000000      0.00000000      0.00000000      0.00000000      0.00000000      0.00000000      0.00000000</v>
  </separator>
  <separator name="performance" >
   <i type="int" name="NPAR">     2</i>
   <i type="int" name="NSIM">     4</i>
   <i type="int" name="NBLK">    -1</i>
   <i type="logical" name="LPLANE"> T  </i>
   <i type="logical" name="LSCALAPACK"> T  </i>
   <i type="logical" name="LSCAAWARE"> F  </i>
   <i type="logical" name="LSCALU"> F  </i>
   <i type="logical" name="LASYNC"> F  </i>
   <i type="logical" name="LORBITALREAL"> F  </i>
  </separator>
  <separator name="miscellaneous" >
   <i type="int" name="IDIOT">     3</i>
   <i type="int" name="ISPECIAL">     0</i>
   <i type="logical" name="LMUSIC"> F  </i>
   <v name="POMASS">     95.94000000     32.06600000</v>
   <v name="DARWINR">      0.00000000      0.00000000</v>
   <v name="DARWINV">      1.00000000      1.00000000</v>
   <i type="logical" name="LCORR"> T  </i>
  </separator>
  <i type="logical" name="GGA_COMPAT"> T  </i>
  <i type="logical" name="LBERRY"> F  </i>
  <i type="int" name="ICORELEVEL">     0</i>
  <i type="logical" name="LDAU"> F  </i>
  <i type="int" name="I_CONSTRAINED_M">     0</i>
  <separator name="electronic exchange-correlation" >
   <i type="string" name="GGA">--</i>
   <i type="int" name="VOSKOWN">     0</i>
   <i type="logical" name="LHFCALC"> F  </i>
   <i type="string" name="PRECFOCK"></i>
   <i type="logical" name="LSYMGRAD"> F  </i>
   <i type="logical" name="LHFONE"> F  </i>
   <i type="logical" name="LRHFCALC"> F  </i>
   <i type="logical" name="LTHOMAS"> F  </i>
   <i type="logical" name="LMODELHF"> F  </i>
   <i name="ENCUT4O">     -1.00000000</i>
   <i type="int" name="EXXOEP">     0</i>
   <i type="int" name="FOURORBIT">     0</i>
   <i name="AEXX">      0.00000000</i>
   <i name="HFALPHA">      0.00000000</i>
   <i name="MCALPHA">      0.00000000</i>
   <i name="ALDAX">      1.00000000</i>
   <i name="AGGAX">      1.00000000</i>
   <i name="ALDAC">      1.00000000</i>
   <i name="AGGAC">      1.00000000</i>
   <i type="int" name="NKREDX">     1</i>
   <i type="int" name="NKREDY">     1</i>
   <i type="int" name="NKREDZ">     1</i>
   <i type="logical" name="SHIFTRED"> F  </i>
   <i type="logical" name="ODDONLY"> F  </i>
   <i type="logical" name="EVENONLY"> F  </i>
   <i type="int" name="LMAXFOCK">     0</i>
   <i type="int" name="NMAXFOCKAE">     0</i>
   <i type="logical" name="LFOCKAEDFT"> F  </i>
   <i name="HFSCREEN">      0.00000000</i>
   <i name="HFSCREENC">      0.00000000</i>
   <i type="int" name="NBANDSGWLOW">     0</i>
  </separator>
  <separator name="vdW DFT" >
   <i type="logical" name="LUSE_VDW"> F  </i>
   <i name="Zab_VDW">     -0.84910000</i>
   <i name="PARAM1">      0.12340000</i>
   <i name="PARAM2">      1.00000000</i>
   <i name="PARAM3">      0.00000000</i>
  </separator>
  <separator name="model GW" >
   <i type="int" name="MODEL_GW">     0</i>
   <i name="MODEL_EPS0">     47.38502723</i>
   <i name="MODEL_ALPHA">      1.00000000</i>
  </separator>
  <separator name="linear response parameters" >
   <i type="logical" name="LEPSILON"> F  </i>
   <i type="logical" name="LRPA"> F  </i>
   <i type="logical" name="LNABLA"> F  </i>
   <i type="logical" name="LVEL"> F  </i>
   <i type="int" name="KINTER">     0</i>
   <i name="CSHIFT">      0.10000000</i>
   <i name="OMEGAMAX">     -1.00000000</i>
   <i name="DEG_THRESHOLD">      0.00200000</i>
   <i name="RTIME">     -0.10000000</i>
   <i name="WPLASMAI">      0.00000000</i>
   <v name="DFIELD">      0.00000000      0.00000000      0.00000000</v>
   <v name="WPLASMA">      0.00000000      0.00000000      0.00000000      0.00000000      0.00000000      0.00000000      0.00000000      0.00000000      0.00000000</v>
  </separator>
  <separator name="orbital magnetization" >
   <i type="logical" name="NUCIND"> F  </i>
   <v name="MAGPOS">      0.00000000      0.00000000      0.00000000</v>
   <i type="logical" name="LNICSALL"> T  </i>
   <i type="logical" name="ORBITALMAG"> F  </i>
   <i type="logical" name="LMAGBLOCH"> F  </i>
   <i type="logical" name="LCHIMAG"> F  </i>
   <i type="logical" name="LGAUGE"> T  </i>
   <i type="int" name="MAGATOM">     0</i>
   <v name="MAGDIPOL">      0.00000000      0.00000000      0.00000000</v>
   <v name="AVECCONST">      0.00000000      0.00000000      0.00000000</v>
  </separator>
  <separator name="response functions" >
   <i type="logical" name="LADDER"> F  </i>
   <i type="logical" name="LRPAFORCE"> F  </i>
   <i type="logical" name="LFXC"> F  </i>
   <i type="logical" name="LHARTREE"> T  </i>
   <i type="int" name="IBSE">     0</i>
   <v type="int" name="KPOINT">    -1     0     0     0</v>
   <i type="logical" name="LTCTE"> F  </i>
   <i type="logical" name="LTETE"> F  </i>
   <i type="logical" name="LTRIPLET"> F  </i>
   <i type="logical" name="LFXCEPS"> F  </i>
   <i type="logical" name="LFXHEG"> F  </i>
   <i type="int" name="NATURALO">     2</i>
   <i type="logical" name="L2ORDER"> F  </i>
   <i type="logical" name="LMP2LT"> F  </i>
   <i type="logical" name="LUSEW"> F  </i>
   <i name="ENCUTGW">     -2.00000000</i>
   <i name="ENCUTGWSOFT">     -2.00000000</i>
   <i name="ENCUTLF">     -1.00000000</i>
   <i type="int" name="LMAXMP2">    -1</i>
   <i name="SCISSOR">      0.00000000</i>
   <i type="int" name="NOMEGA">     0</i>
   <i type="int" name="NOMEGAR">     0</i>
   <i type="int" name="NBANDSGW">    -1</i>
   <i type="int" name="NBANDSO">    -1</i>
   <i type="int" name="NBANDSV">    -1</i>
   <i type="int" name="NELM">     1</i>
   <i type="int" name="NELMHF">     1</i>
   <i type="int" name="DIM">     3</i>
   <i type="int" name="ANTIRES">     0</i>
   <i name="OMEGAMAX">    -30.00000000</i>
   <i name="OMEGAMIN">    -30.00000000</i>
   <i name="OMEGATL">   -200.00000000</i>
   <i type="int" name="OMEGAGRID">   140</i>
   <i name="CSHIFT">     -0.10000000</i>
   <i type="logical" name="SELFENERGY"> F  </i>
   <i type="logical" name="LSPECTRAL"> F  </i>
   <i type="logical" name="LSPECTRALGW"> F  </i>
   <i type="logical" name="LSINGLES"> F  </i>
   <i type="logical" name="LFERMIGW"> F  </i>
   <i type="logical" name="ODDONLYGW"> F  </i>
   <i type="logical" name="EVENONLYGW"> F  </i>
   <i type="int" name="NKREDLFX">     1</i>
   <i type="int" name="NKREDLFY">     1</i>
   <i type="int" name="NKREDLFZ">     1</i>
   <i type="int" name="MAXMEM">  2800</i>
   <i type="int" name="TELESCOPE">     0</i>
   <i type="int" name="TAUPAR">     1</i>
   <i type="int" name="OMEGAPAR">    -1</i>
   <i name="LAMBDA">      1.00000000</i>
  </separator>
  <separator name="External order field" >
   <i name="OFIELD_KAPPA">      0.00000000</i>
   <v name="OFIELD_K">      0.00000000      0.00000000      0.00000000</v>
   <i name="OFIELD_Q6_NEAR">      0.00000000</i>
   <i name="OFIELD_Q6_FAR">      0.00000000</i>
   <i name="OFIELD_A">      0.00000000</i>
  </separator>
 </parameters>
 <atominfo>
  <atoms>       3 </atoms>
  <types>       2 </types>
  <array name="atoms" >
   <dimension dim="1">ion</dimension>
   <field type="string">element</field>
   <field type="int">atomtype</field>
   <set>
    <rc><c>Mo</c><c>   1</c></rc>
    <rc><c>S </c><c>   2</c></rc>
    <rc><c>S </c><c>   2</c></rc>
   </set>
  </array>
  <array name="atomtypes" >
   <dimension dim="1">type</dimension>
   <field type="int">atomspertype</field>
   <field type="string">element</field>
   <field>mass</field>
   <field>valence</field>
   <field type="string">pseudopotential</field>
   <set>
    <rc><c>   1</c><c>Mo</c><c>     95.94000000</c><c>      6.00000000</c><c> PAW_PBE Mo 08Apr2002                   </c></rc>
    <rc><c>   2</c><c>S </c><c>     32.06600000</c><c>      6.00000000</c><c>  PAW_PBE S 17Jan2003                   </c></rc>
   </set>
  </array>
 </atominfo>
 <structure name="initialpos" >
  <crystal>
   <varray name="basis" >
    <v>       3.19031573       0.00000000       0.00000000 </v>
    <v>      -1.59515786       2.76289447       0.00000000 </v>
    <v>       0.00000000       0.00000000      26.87900430 </v>
   </varray>
   <i name="volume">    236.92513614 </i>
   <varray name="rec_basis" >
    <v>       0.31344860       0.18096963       0.00000000 </v>
    <v>       0.00000000       0.36193927       0.00000000 </v>
    <v>       0.00000000       0.00000000       0.03720376 </v>
   </varray>
  </crystal>
  <varray name="positions" >
   <v>       0.33333300       0.66666700       0.13838872 </v>
   <v>       0.66666700       0.33333300       0.08016914 </v>
   <v>       0.66666600       0.33333300       0.19660830 </v>
  </varray>
 </structure>
 <calculation>
  <scstep>
   <time name="dav">    0.36    0.37</time>
   <time name="total">    0.45    0.83</time>
   <energy>
    <i name="alphaZ">     12.51390764 </i>
    <i name="ewald">   4286.25630342 </i>
    <i name="hartreedc">  -4967.71356795 </i>
    <i name="XCdc">    -36.31055642 </i>
    <i name="pawpsdc">    406.88651198 </i>
    <i name="pawaedc">   -329.34073203 </i>
    <i name="eentropy">      0.00000000 </i>
    <i name="bandstr">      3.19553697 </i>
    <i name="atom">    771.16194735 </i>
    <i name="e_fr_energy">    146.64935096 </i>
    <i name="e_wo_entrp">    146.64935096 </i>
    <i name="e_0_energy">    146.64935096 </i>
   </energy>
  </scstep>
  <scstep>
   <time name="dav">    0.55    0.55</time>
   <time name="total">    0.55    0.55</time>
   <energy>
    <i name="e_fr_energy">     -5.14668359 </i>
    <i name="e_wo_entrp">     -5.14668359 </i>
    <i name="e_0_energy">     -5.14668359 </i>
   </energy>
  </scstep>
  <scstep>
   <time name="dav">    0.46    0.46</time>
   <time name="total">    0.46    0.46</time>
   <energy>
    <i name="e_fr_energy">    -23.02410490 </i>
    <i name="e_wo_entrp">    -23.02410490 </i>
    <i name="e_0_energy">    -23.02410490 </i>
   </energy>
  </scstep>
  <scstep>
   <time name="dav">    0.43    0.43</time>
   <time name="total">    0.43    0.43</time>
   <energy>
    <i name="e_fr_energy">    -23.40059862 </i>
    <i name="e_wo_entrp">    -23.40059862 </i>
    <i name="e_0_energy">    -23.40059862 </i>
   </energy>
  </scstep>
  <scstep>
   <time name="dav">    0.44    0.44</time>
   <time name="total">    0.48    0.47</time>
   <energy>
    <i name="e_fr_energy">    -23.40977315 </i>
    <i name="e_wo_entrp">    -23.40977315 </i>
    <i name="e_0_energy">    -23.40977315 </i>
   </energy>
  </scstep>
  <scstep>
   <time name="diag">    0.07    0.07</time>
   <time name="diis">    0.31    0.31</time>
   <time name="orth">    0.01    0.01</time>
   <time name="total">    0.49    0.49</time>
   <energy>
    <i name="e_fr_energy">    -22.24951060 </i>
    <i name="e_wo_entrp">    -22.24951060 </i>
    <i name="e_0_energy">    -22.24951060 </i>
   </energy>
  </scstep>
  <scstep>
   <time name="diag">    0.07    0.07</time>
   <time name="diis">    0.30    0.30</time>
   <time name="orth">    0.01    0.01</time>
   <time name="total">    0.48    0.48</time>
   <energy>
    <i name="e_fr_energy">    -21.86435954 </i>
    <i name="e_wo_entrp">    -21.86435954 </i>
    <i name="e_0_energy">    -21.86435954 </i>
   </energy>
  </scstep>
  <scstep>
   <time name="diag">    0.07    0.07</time>
   <time name="diis">    0.32    0.32</time>
   <time name="orth">    0.01    0.01</time>
   <time name="total">    0.50    0.50</time>
   <energy>
    <i name="e_fr_energy">    -21.80450856 </i>
    <i name="e_wo_entrp">    -21.80450856 </i>
    <i name="e_0_energy">    -21.80450856 </i>
   </energy>
  </scstep>
  <scstep>
   <time name="diag">    0.07    0.07</time>
   <time name="diis">    0.35    0.35</time>
   <time name="orth">    0.01    0.01</time>
   <time name="total">    0.52    0.52</time>
   <energy>
    <i name="e_fr_energy">    -21.79966905 </i>
    <i name="e_wo_entrp">    -21.79966905 </i>
    <i name="e_0_energy">    -21.79966905 </i>
   </energy>
  </scstep>
  <scstep>
   <time name="diag">    0.06    0.07</time>
   <time name="diis">    0.35    0.35</time>
   <time name="orth">    0.01    0.01</time>
   <time name="total">    0.52    0.52</time>
   <energy>
    <i name="e_fr_energy">    -21.79891913 </i>
    <i name="e_wo_entrp">    -21.79891913 </i>
    <i name="e_0_energy">    -21.79891913 </i>
   </energy>
  </scstep>
  <scstep>
   <time name="diag">    0.06    0.07</time>
   <time name="diis">    0.33    0.33</time>
   <time name="orth">    0.01    0.01</time>
   <time name="total">    0.50    0.50</time>
   <energy>
    <i name="e_fr_energy">    -21.79883041 </i>
    <i name="e_wo_entrp">    -21.79883041 </i>
    <i name="e_0_energy">    -21.79883041 </i>
   </energy>
  </scstep>
  <scstep>
   <time name="diag">    0.06    0.07</time>
   <time name="diis">    0.32    0.32</time>
   <time name="orth">    0.01    0.01</time>
   <time name="total">    0.49    0.50</time>
   <energy>
    <i name="e_fr_energy">    -21.79861128 </i>
    <i name="e_wo_entrp">    -21.79861128 </i>
    <i name="e_0_energy">    -21.79861128 </i>
   </energy>
  </scstep>
  <scstep>
   <time name="diag">    0.07    0.07</time>
   <time name="diis">    0.29    0.29</time>
   <time name="orth">    0.01    0.01</time>
   <time name="total">    0.47    0.47</time>
   <energy>
    <i name="e_fr_energy">    -21.79888912 </i>
    <i name="e_wo_entrp">    -21.79888912 </i>
    <i name="e_0_energy">    -21.79888912 </i>
   </energy>
  </scstep>
  <scstep>
   <time name="diag">    0.07    0.07</time>
   <time name="diis">    0.27    0.27</time>
   <time name="orth">    0.01    0.01</time>
   <time name="total">    0.45    0.45</time>
   <energy>
    <i name="e_fr_energy">    -21.79892281 </i>
    <i name="e_wo_entrp">    -21.79892281 </i>
    <i name="e_0_energy">    -21.79892281 </i>
   </energy>
  </scstep>
  <scstep>
   <time name="diag">    0.06    0.07</time>
   <time name="diis">    0.23    0.23</time>
   <time name="orth">    0.01    0.01</time>
   <time name="total">    0.41    0.41</time>
   <energy>
    <i name="e_fr_energy">    -21.79903397 </i>
    <i name="e_wo_entrp">    -21.79903397 </i>
    <i name="e_0_energy">    -21.79903397 </i>
   </energy>
  </scstep>
  <scstep>
   <time name="diag">    0.06    0.07</time>
   <time name="diis">    0.23    0.23</time>
   <time name="orth">    0.01    0.01</time>
   <time name="total">    0.41    0.41</time>
   <energy>
    <i name="e_fr_energy">    -21.79906875 </i>
    <i name="e_wo_entrp">    -21.79906875 </i>
    <i name="e_0_energy">    -21.79906875 </i>
   </energy>
  </scstep>
  <scstep>
   <time name="diag">    0.06    0.07</time>
   <time name="diis">    0.20    0.20</time>
   <time name="orth">    0.01    0.01</time>
   <time name="total">    0.38    0.38</time>
   <energy>
    <i name="e_fr_energy">    -21.79911334 </i>
    <i name="e_wo_entrp">    -21.79911334 </i>
    <i name="e_0_energy">    -21.79911334 </i>
   </energy>
  </scstep>
  <scstep>
   <time name="diag">    0.06    0.07</time>
   <time name="diis">    0.17    0.17</time>
   <time name="orth">    0.01    0.01</time>
   <time name="total">    0.32    0.32</time>
   <energy>
    <i name="alphaZ">     12.51390764 </i>
    <i name="ewald">   4286.25630342 </i>
    <i name="hartreedc">  -4980.69970540 </i>
    <i name="XCdc">    -35.19764818 </i>
    <i name="pawpsdc">    471.80294895 </i>
    <i name="pawaedc">   -395.99428084 </i>
    <i name="eentropy">      0.00000000 </i>
    <i name="bandstr">   -151.64259384 </i>
    <i name="atom">    771.16194735 </i>
    <i name="e_fr_energy">    -21.79912089 </i>
    <i name="e_wo_entrp">    -21.79912089 </i>
    <i name="e_0_energy">    -21.79912089 </i>
   </energy>
  </scstep>
  <structure>
   <crystal>
    <varray name="basis" >
     <v>       3.19031573       0.00000000       0.00000000 </v>
     <v>      -1.59515786       2.76289447       0.00000000 </v>
     <v>       0.00000000       0.00000000      26.87900430 </v>
    </varray>
    <i name="volume">    236.92513614 </i>
    <varray name="rec_basis" >
     <v>       0.31344860       0.18096963       0.00000000 </v>
     <v>       0.00000000       0.36193927       0.00000000 </v>
     <v>       0.00000000       0.00000000       0.03720376 </v>
    </varray>
   </crystal>
   <varray name="positions" >
    <v>       0.33333300       0.66666700       0.13838872 </v>
    <v>       0.66666700       0.33333300       0.08016914 </v>
    <v>       0.66666600       0.33333300       0.19660830 </v>
   </varray>
  </structure>
  <varray name="forces" >
   <v>       0.00000000       0.00000000       0.00000000 </v>
   <v>      -0.00000000       0.00000000       0.11457484 </v>
   <v>      -0.00000000      -0.00000000      -0.11457484 </v>
  </varray>
  <varray name="stress" >
   <v>      -0.82882817       0.00000000       0.00000000 </v>
   <v>       0.00000000      -0.82882817       0.00000000 </v>
   <v>       0.00000000       0.00000000      -2.45498435 </v>
  </varray>
  <energy>
   <i name="e_fr_energy">    -22.39002995 </i>
   <i name="e_wo_entrp">    -22.39002995 </i>
   <i name="e_0_energy">      0.00000000 </i>
  </energy>
  <time name="totalsc">    9.43   10.53</time>
  <eigenvalues>
   <array>
    <dimension dim="1">band</dimension>
    <dimension dim="2">kpoint</dimension>
    <dimension dim="3">spin</dimension>
    <field>eigene</field>
    <field>occ</field>
    <set>
     <set comment="spin 1">
      <set comment="kpoint 1">
       <r>  -17.4635    1.0000 </r>
       <r>  -16.2554    1.0000 </r>
       <r>   -8.9844    1.0000 </r>
       <r>   -6.0236    1.0000 </r>
       <r>   -6.0236    1.0000 </r>
       <r>   -5.1623    1.0000 </r>
       <r>   -4.9181    1.0000 </r>
       <r>   -4.9180    1.0000 </r>
       <r>   -3.4419    1.0000 </r>
       <r>   -0.6704    0.0000 </r>
       <r>   -0.6704    0.0000 </r>
       <r>   -0.4466    0.0000 </r>
       <r>   -0.4466    0.0000 </r>
       <r>    1.9926    0.0000 </r>
      </set>
      <set comment="kpoint 2">
       <r>  -17.2493    1.0000 </r>
       <r>  -16.1530    1.0000 </r>
       <r>   -8.7399    1.0000 </r>
       <r>   -6.4870    1.0000 </r>
       <r>   -5.9704    1.0000 </r>
       <r>   -5.7892    1.0000 </r>
       <r>   -5.2538    1.0000 </r>
       <r>   -4.4848    1.0000 </r>
       <r>   -3.5803    1.0000 </r>
       <r>   -0.9504    0.0000 </r>
       <r>   -0.8846    0.0000 </r>
       <r>   -0.6832    0.0000 </r>
       <r>   -0.3156    0.0000 </r>
       <r>    2.3700    0.0000 </r>
      </set>
      <set comment="kpoint 3">
       <r>  -16.6806    1.0000 </r>
       <r>  -15.8843    1.0000 </r>
       <r>   -8.3738    1.0000 </r>
       <r>   -7.2136    1.0000 </r>
       <r>   -6.9512    1.0000 </r>
       <r>   -5.8888    1.0000 </r>
       <r>   -5.2021    1.0000 </r>
       <r>   -4.7364    1.0000 </r>
       <r>   -4.1483    1.0000 </r>
       <r>   -1.2745    0.0000 </r>
       <r>   -1.0980    0.0000 </r>
       <r>   -0.5558    0.0000 </r>
       <r>    0.3014    0.0000 </r>
       <r>    3.1783    0.0000 </r>
      </set>
      <set comment="kpoint 4">
       <r>  -16.0055    1.0000 </r>
       <r>  -15.5758    1.0000 </r>
       <r>   -8.8110    1.0000 </r>
       <r>   -7.8186    1.0000 </r>
       <r>   -7.3464    1.0000 </r>
       <r>   -6.3862    1.0000 </r>
       <r>   -5.1457    1.0000 </r>
       <r>   -4.6116    1.0000 </r>
       <r>   -4.3435    1.0000 </r>
       <r>   -1.2794    0.0000 </r>
       <r>   -1.0005    0.0000 </r>
       <r>    0.1627    0.0000 </r>
       <r>    0.6947    0.0000 </r>
       <r>    3.7015    0.0000 </r>
      </set>
      <set comment="kpoint 5">
       <r>  -15.6772    1.0000 </r>
       <r>  -15.4325    1.0000 </r>
       <r>   -9.1437    1.0000 </r>
       <r>   -8.1835    1.0000 </r>
       <r>   -7.4727    1.0000 </r>
       <r>   -6.5667    1.0000 </r>
       <r>   -5.2845    1.0000 </r>
       <r>   -4.3845    1.0000 </r>
       <r>   -4.0627    1.0000 </r>
       <r>   -1.2571    0.0000 </r>
       <r>   -0.7411    0.0000 </r>
       <r>    0.4613    0.0000 </r>
       <r>    0.8102    0.0000 </r>
       <r>    2.7406    0.0000 </r>
      </set>
      <set comment="kpoint 6">
       <r>  -16.8565    1.0000 </r>
       <r>  -15.9660    1.0000 </r>
       <r>   -8.3926    1.0000 </r>
       <r>   -7.0510    1.0000 </r>
       <r>   -6.5325    1.0000 </r>
       <r>   -6.0676    1.0000 </r>
       <r>   -5.4497    1.0000 </r>
       <r>   -4.3503    1.0000 </r>
       <r>   -3.9522    1.0000 </r>
       <r>   -1.3496    0.0000 </r>
       <r>   -0.9715    0.0000 </r>
       <r>   -0.9597    0.0000 </r>
       <r>    0.2793    0.0000 </r>
       <r>    2.9620    0.0000 </r>
      </set>
      <set comment="kpoint 7">
       <r>  -16.2229    1.0000 </r>
       <r>  -15.6675    1.0000 </r>
       <r>   -8.4554    1.0000 </r>
       <r>   -7.4777    1.0000 </r>
       <r>   -7.2146    1.0000 </r>
       <r>   -6.5719    1.0000 </r>
       <r>   -5.3503    1.0000 </r>
       <r>   -4.7125    1.0000 </r>
       <r>   -4.2358    1.0000 </r>
       <r>   -1.4330    0.0000 </r>
       <r>   -0.9845    0.0000 </r>
       <r>   -0.4897    0.0000 </r>
       <r>    0.7871    0.0000 </r>
       <r>    3.9353    0.0000 </r>
      </set>
      <set comment="kpoint 8">
       <r>  -15.6925    1.0000 </r>
       <r>  -15.4236    1.0000 </r>
       <r>   -8.8563    1.0000 </r>
       <r>   -8.2408    1.0000 </r>
       <r>   -7.3450    1.0000 </r>
       <r>   -6.5887    1.0000 </r>
       <r>   -5.3351    1.0000 </r>
       <r>   -5.1943    1.0000 </r>
       <r>   -3.9090    1.0000 </r>
       <r>   -1.2382    0.0000 </r>
       <r>   -0.7279    0.0000 </r>
       <r>    0.1320    0.0000 </r>
       <r>    0.8208    0.0000 </r>
       <r>    3.2674    0.0000 </r>
      </set>
      <set comment="kpoint 9">
       <r>  -15.7074    1.0000 </r>
       <r>  -15.4146    1.0000 </r>
       <r>   -8.4959    1.0000 </r>
       <r>   -8.2916    1.0000 </r>
       <r>   -7.0178    1.0000 </r>
       <r>   -6.6371    1.0000 </r>
       <r>   -6.3179    1.0000 </r>
       <r>   -5.0609    1.0000 </r>
       <r>   -3.9378    1.0000 </r>
       <r>   -1.2892    0.0000 </r>
       <r>   -0.6782    0.0000 </r>
       <r>   -0.3665    0.0000 </r>
       <r>    1.1089    0.0000 </r>
       <r>    4.0998    0.0000 </r>
      </set>
      <set comment="kpoint 10">
       <r>  -15.4725    1.0000 </r>
       <r>  -15.2954    1.0000 </r>
       <r>   -8.6760    1.0000 </r>
       <r>   -8.3269    1.0000 </r>
       <r>   -7.3022    1.0000 </r>
       <r>   -6.6396    1.0000 </r>
       <r>   -6.4094    1.0000 </r>
       <r>   -5.4472    1.0000 </r>
       <r>   -3.5704    1.0000 </r>
       <r>   -1.6149    0.0000 </r>
       <r>   -0.3082    0.0000 </r>
       <r>   -0.1276    0.0000 </r>
       <r>    1.2542    0.0000 </r>
       <r>    3.5104    0.0000 </r>
      </set>
     </set>
    </set>
   </array>
  </eigenvalues>
  <separator name="orbital magnetization" >
   <v name="MAGDIPOLOUT">      0.00000000      0.00000000      0.00000000</v>
  </separator>
  <dos>
   <i name="efermi">     -3.42252949 </i>
   <total>
    <array>
     <dimension dim="1">gridpoints</dimension>
     <dimension dim="2">spin</dimension>
     <field>energy</field>
     <field>total</field>
     <field>integrated</field>
     <set>
      <set comment="spin 1">
       <r>   -19.4635     0.0000     0.0000 </r>
       <r>   -19.3783     0.0000     0.0000 </r>
       <r>   -19.2931     0.0000     0.0000 </r>
       <r>   -19.2078     0.0000     0.0000 </r>
       <r>   -19.1226     0.0000     0.0000 </r>
       <r>   -19.0374     0.0000     0.0000 </r>
       <r>   -18.9522     0.0000     0.0000 </r>
       <r>   -18.8670     0.0000     0.0000 </r>
       <r>   -18.7818     0.0000     0.0000 </r>
       <r>   -18.6966     0.0000     0.0000 </r>
       <r>   -18.6114     0.0000     0.0000 </r>
       <r>   -18.5262     0.0000     0.0000 </r>
       <r>   -18.4410     0.0000     0.0000 </r>
       <r>   -18.3557     0.0000     0.0000 </r>
       <r>   -18.2705     0.0000     0.0000 </r>
       <r>   -18.1853     0.0000     0.0000 </r>
       <r>   -18.1001     0.0000     0.0000 </r>
       <r>   -18.0149     0.0000     0.0000 </r>
       <r>   -17.9297     0.0000     0.0000 </r>
       <r>   -17.8445     0.0000     0.0000 </r>
       <r>   -17.7593     0.0000     0.0000 </r>
       <r>   -17.6741     0.0000     0.0000 </r>
       <r>   -17.5888     0.0000     0.0000 </r>
       <r>   -17.5036     0.0000     0.0000 </r>
       <r>   -17.4184     0.1842     0.0042 </r>
       <r>   -17.3332     0.5326     0.0347 </r>
       <r>   -17.2480     0.4779     0.0944 </r>
       <r>   -17.1628     0.5174     0.1368 </r>
       <r>   -17.0776     0.5569     0.1826 </r>
       <r>   -16.9924     0.5964     0.2317 </r>
       <r>   -16.9072     0.6359     0.2842 </r>
       <r>   -16.8219     0.6622     0.3398 </r>
       <r>   -16.7367     0.6694     0.3966 </r>
       <r>   -16.6515     0.6853     0.4540 </r>
       <r>   -16.5663     0.7183     0.5139 </r>
       <r>   -16.4811     0.7513     0.5765 </r>
       <r>   -16.3959     0.7844     0.6419 </r>
       <r>   -16.3107     0.8174     0.7101 </r>
       <r>   -16.2255     1.3860     0.7892 </r>
       <r>   -16.1403     2.0612     0.9707 </r>
       <r>   -16.0550     2.3562     1.1589 </r>
       <r>   -15.9698     2.6760     1.3727 </r>
       <r>   -15.8846     2.8920     1.6102 </r>
       <r>   -15.7994     3.2301     1.8710 </r>
       <r>   -15.7142     3.5688     2.1607 </r>
       <r>   -15.6290     4.2223     2.6174 </r>
       <r>   -15.5438     4.2448     2.9751 </r>
       <r>   -15.4586     3.7673     3.3668 </r>
       <r>   -15.3734     3.3483     3.7769 </r>
       <r>   -15.2881     0.0000     4.0000 </r>
       <r>   -15.2029     0.0000     4.0000 </r>
       <r>   -15.1177     0.0000     4.0000 </r>
       <r>   -15.0325     0.0000     4.0000 </r>
       <r>   -14.9473     0.0000     4.0000 </r>
       <r>   -14.8621     0.0000     4.0000 </r>
       <r>   -14.7769     0.0000     4.0000 </r>
       <r>   -14.6917     0.0000     4.0000 </r>
       <r>   -14.6065     0.0000     4.0000 </r>
       <r>   -14.5212     0.0000     4.0000 </r>
       <r>   -14.4360     0.0000     4.0000 </r>
       <r>   -14.3508     0.0000     4.0000 </r>
       <r>   -14.2656     0.0000     4.0000 </r>
       <r>   -14.1804     0.0000     4.0000 </r>
       <r>   -14.0952     0.0000     4.0000 </r>
       <r>   -14.0100     0.0000     4.0000 </r>
       <r>   -13.9248     0.0000     4.0000 </r>
       <r>   -13.8396     0.0000     4.0000 </r>
       <r>   -13.7544     0.0000     4.0000 </r>
       <r>   -13.6691     0.0000     4.0000 </r>
       <r>   -13.5839     0.0000     4.0000 </r>
       <r>   -13.4987     0.0000     4.0000 </r>
       <r>   -13.4135     0.0000     4.0000 </r>
       <r>   -13.3283     0.0000     4.0000 </r>
       <r>   -13.2431     0.0000     4.0000 </r>
       <r>   -13.1579     0.0000     4.0000 </r>
       <r>   -13.0727     0.0000     4.0000 </r>
       <r>   -12.9875     0.0000     4.0000 </r>
       <r>   -12.9022     0.0000     4.0000 </r>
       <r>   -12.8170     0.0000     4.0000 </r>
       <r>   -12.7318     0.0000     4.0000 </r>
       <r>   -12.6466     0.0000     4.0000 </r>
       <r>   -12.5614     0.0000     4.0000 </r>
       <r>   -12.4762     0.0000     4.0000 </r>
       <r>   -12.3910     0.0000     4.0000 </r>
       <r>   -12.3058     0.0000     4.0000 </r>
       <r>   -12.2206     0.0000     4.0000 </r>
       <r>   -12.1353     0.0000     4.0000 </r>
       <r>   -12.0501     0.0000     4.0000 </r>
       <r>   -11.9649     0.0000     4.0000 </r>
       <r>   -11.8797     0.0000     4.0000 </r>
       <r>   -11.7945     0.0000     4.0000 </r>
       <r>   -11.7093     0.0000     4.0000 </r>
       <r>   -11.6241     0.0000     4.0000 </r>
       <r>   -11.5389     0.0000     4.0000 </r>
       <r>   -11.4537     0.0000     4.0000 </r>
       <r>   -11.3684     0.0000     4.0000 </r>
       <r>   -11.2832     0.0000     4.0000 </r>
       <r>   -11.1980     0.0000     4.0000 </r>
       <r>   -11.1128     0.0000     4.0000 </r>
       <r>   -11.0276     0.0000     4.0000 </r>
       <r>   -10.9424     0.0000     4.0000 </r>
       <r>   -10.8572     0.0000     4.0000 </r>
       <r>   -10.7720     0.0000     4.0000 </r>
       <r>   -10.6868     0.0000     4.0000 </r>
       <r>   -10.6015     0.0000     4.0000 </r>
       <r>   -10.5163     0.0000     4.0000 </r>
       <r>   -10.4311     0.0000     4.0000 </r>
       <r>   -10.3459     0.0000     4.0000 </r>
       <r>   -10.2607     0.0000     4.0000 </r>
       <r>   -10.1755     0.0000     4.0000 </r>
       <r>   -10.0903     0.0000     4.0000 </r>
       <r>   -10.0051     0.0000     4.0000 </r>
       <r>    -9.9199     0.0000     4.0000 </r>
       <r>    -9.8347     0.0000     4.0000 </r>
       <r>    -9.7494     0.0000     4.0000 </r>
       <r>    -9.6642     0.0000     4.0000 </r>
       <r>    -9.5790     0.0000     4.0000 </r>
       <r>    -9.4938     0.0000     4.0000 </r>
       <r>    -9.4086     0.0000     4.0000 </r>
       <r>    -9.3234     0.0000     4.0000 </r>
       <r>    -9.2382     0.0000     4.0000 </r>
       <r>    -9.1530     0.0000     4.0000 </r>
       <r>    -9.0678     0.4702     4.0178 </r>
       <r>    -8.9825     1.0038     4.0804 </r>
       <r>    -8.8973     1.7988     4.1998 </r>
       <r>    -8.8121     2.6348     4.3964 </r>
       <r>    -8.7269     2.8511     4.6375 </r>
       <r>    -8.6417     3.8174     4.9543 </r>
       <r>    -8.5565     3.1536     5.2513 </r>
       <r>    -8.4713     4.9499     5.5221 </r>
       <r>    -8.3861     3.7995     5.9766 </r>
       <r>    -8.3009     5.2620     6.1689 </r>
       <r>    -8.2156     2.7234     6.4996 </r>
       <r>    -8.1304     1.3273     6.6388 </r>
       <r>    -8.0452     1.1917     6.7461 </r>
       <r>    -7.9600     1.0562     6.8419 </r>
       <r>    -7.8748     0.9206     6.9261 </r>
       <r>    -7.7896     0.8328     6.9995 </r>
       <r>    -7.7044     0.8376     7.0706 </r>
       <r>    -7.6192     0.8423     7.1422 </r>
       <r>    -7.5340     0.8471     7.2142 </r>
       <r>    -7.4487     1.8909     7.3026 </r>
       <r>    -7.3635     4.8462     7.5896 </r>
       <r>    -7.2783     5.1700     8.1236 </r>
       <r>    -7.1931     5.1449     8.5439 </r>
       <r>    -7.1079     3.2536     8.9017 </r>
       <r>    -7.0227     1.4456     9.0996 </r>
       <r>    -6.9375     1.1867     9.2078 </r>
       <r>    -6.8523     1.0905     9.3048 </r>
       <r>    -6.7671     0.9943     9.3937 </r>
       <r>    -6.6818     0.8981     9.4743 </r>
       <r>    -6.5966    11.7299    10.0549 </r>
       <r>    -6.5114     3.8249    10.6373 </r>
       <r>    -6.4262     2.3879    10.9038 </r>
       <r>    -6.3410     2.3840    11.1872 </r>
       <r>    -6.2558     1.8378    11.3535 </r>
       <r>    -6.1706     1.7262    11.5054 </r>
       <r>    -6.0854     1.6145    11.6477 </r>
       <r>    -6.0002     3.5143    11.8138 </r>
       <r>    -5.9149     2.1542    12.0605 </r>
       <r>    -5.8297     1.6835    12.2370 </r>
       <r>    -5.7445     0.8721    12.3355 </r>
       <r>    -5.6593     0.8657    12.4096 </r>
       <r>    -5.5741     0.8593    12.4831 </r>
       <r>    -5.4889     0.8529    12.5560 </r>
       <r>    -5.4037     3.7266    12.7356 </r>
       <r>    -5.3185     9.3196    13.2480 </r>
       <r>    -5.2333     6.9985    13.9637 </r>
       <r>    -5.1481     1.8470    14.3486 </r>
       <r>    -5.0628     1.4984    14.4856 </r>
       <r>    -4.9776     1.4512    14.6111 </r>
       <r>    -4.8924     1.4761    14.7338 </r>
       <r>    -4.8072     1.6597    14.8674 </r>
       <r>    -4.7220     4.2964    15.0343 </r>
       <r>    -4.6368     3.2689    15.4304 </r>
       <r>    -4.5516     2.2954    15.6423 </r>
       <r>    -4.4664     2.7088    15.8461 </r>
       <r>    -4.3812     0.6693    15.9897 </r>
       <r>    -4.2959     1.3757    16.0327 </r>
       <r>    -4.2107     4.2294    16.2761 </r>
       <r>    -4.1255     3.7118    16.6119 </r>
       <r>    -4.0403     3.3938    16.9152 </r>
       <r>    -3.9551     3.0285    17.1888 </r>
       <r>    -3.8699     2.1127    17.4123 </r>
       <r>    -3.7847     1.7990    17.5790 </r>
       <r>    -3.6995     1.4854    17.7189 </r>
       <r>    -3.6143     1.1718    17.8321 </r>
       <r>    -3.5290     0.8528    17.9628 </r>
       <r>    -3.4438     0.0190    18.0000 </r>
       <r>    -3.3586     0.0000    18.0000 </r>
       <r>    -3.2734     0.0000    18.0000 </r>
       <r>    -3.1882     0.0000    18.0000 </r>
       <r>    -3.1030     0.0000    18.0000 </r>
       <r>    -3.0178     0.0000    18.0000 </r>
       <r>    -2.9326     0.0000    18.0000 </r>
       <r>    -2.8474     0.0000    18.0000 </r>
       <r>    -2.7621     0.0000    18.0000 </r>
       <r>    -2.6769     0.0000    18.0000 </r>
       <r>    -2.5917     0.0000    18.0000 </r>
       <r>    -2.5065     0.0000    18.0000 </r>
       <r>    -2.4213     0.0000    18.0000 </r>
       <r>    -2.3361     0.0000    18.0000 </r>
       <r>    -2.2509     0.0000    18.0000 </r>
       <r>    -2.1657     0.0000    18.0000 </r>
       <r>    -2.0805     0.0000    18.0000 </r>
       <r>    -1.9952     0.0000    18.0000 </r>
       <r>    -1.9100     0.0000    18.0000 </r>
       <r>    -1.8248     0.0000    18.0000 </r>
       <r>    -1.7396     0.0000    18.0000 </r>
       <r>    -1.6544     0.0000    18.0000 </r>
       <r>    -1.5692     0.6951    18.0603 </r>
       <r>    -1.4840     0.9176    18.1290 </r>
       <r>    -1.3988     5.8460    18.3580 </r>
       <r>    -1.3136     8.2434    18.9753 </r>
       <r>    -1.2283     0.9482    19.7092 </r>
       <r>    -1.1431     0.8015    19.7838 </r>
       <r>    -1.0579     3.6152    19.9050 </r>
       <r>    -0.9727     6.0113    20.5084 </r>
       <r>    -0.8875     5.6236    20.9354 </r>
       <r>    -0.8023     4.7811    21.3288 </r>
       <r>    -0.7171     4.0629    21.8265 </r>
       <r>    -0.6319     3.2902    22.1425 </r>
       <r>    -0.5467     2.4550    22.3868 </r>
       <r>    -0.4615     2.7168    22.5943 </r>
       <r>    -0.3762     2.6303    22.8146 </r>
       <r>    -0.2910     1.8715    23.0726 </r>
       <r>    -0.2058     2.3690    23.2533 </r>
       <r>    -0.1206     2.0360    23.5020 </r>
       <r>    -0.0354     1.9756    23.6729 </r>
       <r>     0.0498     1.9152    23.8386 </r>
       <r>     0.1350     1.7537    23.9989 </r>
       <r>     0.2202     1.9149    24.1722 </r>
       <r>     0.3054     1.6230    24.3191 </r>
       <r>     0.3907     1.2503    24.4415 </r>
       <r>     0.4759     0.9586    24.5328 </r>
       <r>     0.5611     1.0582    24.6187 </r>
       <r>     0.6463     1.1579    24.7131 </r>
       <r>     0.7315     3.0094    24.8482 </r>
       <r>     0.8167    13.8848    25.2827 </r>
       <r>     0.9019     1.8075    25.5100 </r>
       <r>     0.9871     1.4793    25.6501 </r>
       <r>     1.0723     1.1511    25.7621 </r>
       <r>     1.1576     1.1043    25.8531 </r>
       <r>     1.2428     1.2685    25.9542 </r>
       <r>     1.3280     0.0000    26.0000 </r>
       <r>     1.4132     0.0000    26.0000 </r>
       <r>     1.4984     0.0000    26.0000 </r>
       <r>     1.5836     0.0000    26.0000 </r>
       <r>     1.6688     0.0000    26.0000 </r>
       <r>     1.7540     0.0000    26.0000 </r>
       <r>     1.8392     0.0000    26.0000 </r>
       <r>     1.9245     0.0000    26.0000 </r>
       <r>     2.0097     0.0224    26.0002 </r>
       <r>     2.0949     0.1346    26.0069 </r>
       <r>     2.1801     0.2468    26.0231 </r>
       <r>     2.2653     0.3589    26.0489 </r>
       <r>     2.3505     0.4711    26.0843 </r>
       <r>     2.4357     0.3331    26.1151 </r>
       <r>     2.5209     0.3543    26.1444 </r>
       <r>     2.6061     0.3755    26.1755 </r>
       <r>     2.6914     0.3967    26.2084 </r>
       <r>     2.7766     0.4688    26.2440 </r>
       <r>     2.8618     0.6107    26.2900 </r>
       <r>     2.9470     0.7526    26.3481 </r>
       <r>     3.0322     0.8653    26.4172 </r>
       <r>     3.1174     0.9718    26.4955 </r>
       <r>     3.2026     1.0979    26.5831 </r>
       <r>     3.2878     1.6546    26.6922 </r>
       <r>     3.3730     1.6872    26.8346 </r>
       <r>     3.4583     1.7197    26.9797 </r>
       <r>     3.5435     2.0710    27.1695 </r>
       <r>     3.6287     2.1052    27.3474 </r>
       <r>     3.7139     2.0668    27.5278 </r>
       <r>     3.7991     1.6015    27.6841 </r>
       <r>     3.8843     1.1362    27.8007 </r>
       <r>     3.9695     1.4297    27.9069 </r>
       <r>     4.0547     0.4945    27.9889 </r>
       <r>     4.1399     0.0000    28.0000 </r>
       <r>     4.2251     0.0000    28.0000 </r>
       <r>     4.3104     0.0000    28.0000 </r>
       <r>     4.3956     0.0000    28.0000 </r>
       <r>     4.4808     0.0000    28.0000 </r>
       <r>     4.5660     0.0000    28.0000 </r>
       <r>     4.6512     0.0000    28.0000 </r>
       <r>     4.7364     0.0000    28.0000 </r>
       <r>     4.8216     0.0000    28.0000 </r>
       <r>     4.9068     0.0000    28.0000 </r>
       <r>     4.9920     0.0000    28.0000 </r>
       <r>     5.0773     0.0000    28.0000 </r>
       <r>     5.1625     0.0000    28.0000 </r>
       <r>     5.2477     0.0000    28.0000 </r>
       <r>     5.3329     0.0000    28.0000 </r>
       <r>     5.4181     0.0000    28.0000 </r>
       <r>     5.5033     0.0000    28.0000 </r>
       <r>     5.5885     0.0000    28.0000 </r>
       <r>     5.6737     0.0000    28.0000 </r>
       <r>     5.7589     0.0000    28.0000 </r>
       <r>     5.8442     0.0000    28.0000 </r>
       <r>     5.9294     0.0000    28.0000 </r>
       <r>     6.0146     0.0000    28.0000 </r>
       <r>     6.0998     0.0000    28.0000 </r>
      </set>
     </set>
    </array>
   </total>
  </dos>
 </calculation>
 <structure name="finalpos" >
  <crystal>
   <varray name="basis" >
    <v>       3.19031573       0.00000000       0.00000000 </v>
    <v>      -1.59515786       2.76289447       0.00000000 </v>
    <v>       0.00000000       0.00000000      26.87900430 </v>
   </varray>
   <i name="volume">    236.92513614 </i>
   <varray name="rec_basis" >
    <v>       0.31344860       0.18096963       0.00000000 </v>
    <v>       0.00000000       0.36193927       0.00000000 </v>
    <v>       0.00000000       0.00000000       0.03720376 </v>
   </varray>
  </crystal>
  <varray name="positions" >
   <v>       0.33333300       0.66666700       0.13838872 </v>
   <v>       0.66666700       0.33333300       0.08016914 </v>
   <v>       0.66666600       0.33333300       0.19660830 </v>
  </varray>
 </structure>
</modeling>
