       N       E                     dE             d eps       ncg     rms          ort
DAV:   1     0.446382672790E+03    0.44638E+03   -0.16851E+04   672   0.161E+03
DAV:   2     0.136585680498E+03   -0.30980E+03   -0.29939E+03   672   0.403E+02
DAV:   3     0.540133371439E+02   -0.82572E+02   -0.80109E+02   672   0.186E+02
DAV:   4     0.249558486382E+02   -0.29057E+02   -0.28456E+02   672   0.123E+02
DAV:   5     0.122263374889E+02   -0.12730E+02   -0.12536E+02   672   0.725E+01
SDA:   6    -0.404737577321E+02   -0.52700E+02   -0.12996E+02   672   0.325E+02 0.000E+00
DMP:   7    -0.484342815369E+02   -0.79605E+01   -0.52142E+01   672   0.960E+01 0.900E+01
DMP:   8    -0.520423559681E+02   -0.36081E+01   -0.23999E+01   672   0.427E+01 0.454E+01
DMP:   9    -0.538140806099E+02   -0.17717E+01   -0.14909E+01   672   0.276E+01 0.253E+01
DMP:  10    -0.549777684504E+02   -0.11637E+01   -0.88374E+00   672   0.144E+01 0.202E+01
DMP:  11    -0.557229394456E+02   -0.74517E+00   -0.57639E+00   672   0.910E+00 0.139E+01
DMP:  12    -0.562221403868E+02   -0.49920E+00   -0.35196E+00   672   0.506E+00 0.978E+00
DMP:  13    -0.565295399908E+02   -0.30740E+00   -0.21469E+00   672   0.304E+00 0.610E+00
DMP:  14    -0.567179082522E+02   -0.18837E+00   -0.12876E+00   672   0.176E+00 0.381E+00
DMP:  15    -0.568314472298E+02   -0.11354E+00   -0.76290E-01   672   0.102E+00 0.233E+00
DMP:  16    -0.568986288142E+02   -0.67182E-01   -0.43296E-01   672   0.559E-01 0.137E+00
DMP:  17    -0.569368443502E+02   -0.38216E-01   -0.23989E-01   672   0.303E-01 0.778E-01
DMP:  18    -0.569579524828E+02   -0.21108E-01   -0.12956E-01   672   0.161E-01 0.427E-01
DMP:  19    -0.569693197508E+02   -0.11367E-01   -0.66901E-02   672   0.803E-02 0.228E-01
DMP:  20    -0.569752212830E+02   -0.59015E-02   -0.34443E-02   672   0.410E-02 0.118E-01
DMP:  21    -0.569782748671E+02   -0.30536E-02   -0.17967E-02   672   0.214E-02 0.614E-02
DMP:  22    -0.569798791542E+02   -0.16043E-02   -0.96338E-03   672   0.116E-02 0.327E-02
DMP:  23    -0.569807511900E+02   -0.87204E-03   -0.55419E-03   672   0.692E-03 0.182E-02
DMP:  24    -0.569812596014E+02   -0.50841E-03   -0.34773E-03   672   0.454E-03 0.109E-02
DMP:  25    -0.569815825720E+02   -0.32297E-03   -0.23783E-03   672   0.323E-03 0.711E-03
DMP:  26    -0.569818057028E+02   -0.22313E-03   -0.17590E-03   672   0.247E-03 0.504E-03
DMP:  27    -0.569819717823E+02   -0.16608E-03   -0.13738E-03   672   0.197E-03 0.382E-03
DMP:  28    -0.569821020085E+02   -0.13023E-03   -0.11088E-03   672   0.161E-03 0.304E-03
DMP:  29    -0.569822072319E+02   -0.10522E-03   -0.89610E-04   672   0.130E-03 0.247E-03
DMP:  30    -0.569822922490E+02   -0.85017E-04   -0.72893E-04   672   0.106E-03 0.201E-03
DMP:  31    -0.569823612406E+02   -0.68992E-04   -0.59789E-04   672   0.873E-04 0.163E-03
DMP:  32    -0.569824174137E+02   -0.56173E-04   -0.48703E-04   672   0.715E-04 0.132E-03
DMP:  33    -0.569824622306E+02   -0.44817E-04   -0.41125E-04   672   0.635E-04 0.103E-03
DMP:  34    -0.569824985344E+02   -0.36304E-04   -0.35403E-04   672   0.584E-04 0.789E-04
DMP:  35    -0.569825269505E+02   -0.28416E-04   -0.33904E-04   672   0.640E-04 0.544E-04
DMP:  36    -0.569825491503E+02   -0.22200E-04   -0.38193E-04   672   0.857E-04 0.256E-04
DMP:  37    -0.569825646206E+02   -0.15470E-04   -0.51502E-04   672   0.135E-03-0.169E-04
DMP:  38    -0.569825739896E+02   -0.93690E-05   -0.81577E-04   672   0.236E-03-0.831E-04
DMP:  39    -0.569825720494E+02    0.19402E-05   -0.15151E-03   672   0.460E-03-0.213E-03
DMP:  40    -0.569825516615E+02    0.20388E-04   -0.28751E-03   672   0.902E-03-0.480E-03
DMP:  41    -0.569825151235E+02    0.36538E-04   -0.47026E-03   672   0.152E-02-0.903E-03
DMP:  42    -0.569824748215E+02    0.40302E-04   -0.63800E-03   672   0.212E-02-0.138E-02
DMP:  43    -0.569824496000E+02    0.25222E-04   -0.74582E-03   672   0.252E-02-0.172E-02
DMP:  44    -0.569824385387E+02    0.11061E-04   -0.80449E-03   672   0.275E-02-0.192E-02
DMP:  45    -0.569824293116E+02    0.92271E-05   -0.83125E-03   672   0.286E-02-0.205E-02
DMP:  46    -0.569824547131E+02   -0.25402E-04   -0.75791E-03   672   0.264E-02-0.196E-02
DMP:  47    -0.569824638462E+02   -0.91330E-05   -0.71492E-03   672   0.249E-02-0.184E-02
DMP:  48    -0.569824983108E+02   -0.34465E-04   -0.63024E-03   672   0.220E-02-0.162E-02
DMP:  49    -0.569825009192E+02   -0.26083E-05   -0.58646E-03   672   0.206E-02-0.156E-02
DMP:  50    -0.569825446116E+02   -0.43692E-04   -0.45153E-03   672   0.161E-02-0.125E-02
DMP:  51    -0.569825632545E+02   -0.18643E-04   -0.36025E-03   672   0.129E-02-0.103E-02
DMP:  52    -0.569826017052E+02   -0.38451E-04   -0.23946E-03   672   0.871E-03-0.713E-03
DMP:  53    -0.569826187719E+02   -0.17067E-04   -0.16760E-03   672   0.614E-03-0.509E-03
DMP:  54    -0.569826419193E+02   -0.23147E-04   -0.96532E-04   672   0.359E-03-0.307E-03
DMP:  55    -0.569826520390E+02   -0.10120E-04   -0.58389E-04   672   0.218E-03-0.188E-03
DMP:  56    -0.569826622698E+02   -0.10231E-04   -0.29306E-04   672   0.110E-03-0.970E-04
DMP:  57    -0.569826664589E+02   -0.41891E-05   -0.15514E-04   672   0.583E-04-0.510E-04
DMP:  58    -0.569826700474E+02   -0.35885E-05   -0.67408E-05   672   0.252E-04-0.219E-04
DMP:  59    -0.569826716031E+02   -0.15557E-05   -0.30628E-05   672   0.109E-04-0.857E-05
