perl: warning: Setting locale failed.
perl: warning: Please check that your locale settings:
	LANGUAGE = (unset),
	LC_ALL = (unset),
	LC_CTYPE = "UTF-8",
	LANG = "en_US.iso885915"
    are supported and installed on your system.
perl: warning: Falling back to the standard locale ("C").
Starting job 28495441 ("jobname") on c3-10 at Sun Nov 3 20:40:31 CET 2019
 running on   16 total cores
 distrk:  each k-point on   16 cores,    1 groups
 distr:  one band on    4 cores,    4 groups
 using from now: INCAR     
 vasp.5.4.4.18Apr17-6-g9f103f2a35 (build Jun 30 2017 11:15:00) complex          
  
 POSCAR found type information on POSCAR  Mo S 
 POSCAR found :  2 types and       6 ions
 scaLAPACK will be used
 LDA part: xc-table for Pade appr. of Perdew
 POSCAR, INCAR and KPOINTS ok, starting setup
 FFT: planning ...
 WAVECAR not read
 WARNING: random wavefunctions but no delay for mixing, default for NELMDL
 entering main loop

 ----------------------------------------------------------------------------- 
|                                                                             |
|           W    W    AA    RRRRR   N    N  II  N    N   GGGG   !!!           |
|           W    W   A  A   R    R  NN   N  II  NN   N  G    G  !!!           |
|           W    W  A    A  R    R  N N  N  II  N N  N  G       !!!           |
|           W WW W  AAAAAA  RRRRR   N  N N  II  N  N N  G  GGG   !            |
|           WW  WW  A    A  R   R   N   NN  II  N   NN  G    G                |
|           W    W  A    A  R    R  N    N  II  N    N   GGGG   !!!           |
|                                                                             |
|      ALGO=A and IALGO=5X tend to fail with the tetrahedron method           |
|      (e.g. Bloechls method ISMEAR=-5 is not variational)                    |
|      please switch to IMSEAR=0-n, except for DOS calculations               |
|      For DOS calculations use IALGO=53 after preconverging with ISMEAR>=0   |
|          I HOPE YOU KNOW, WHAT YOU ARE  DOING                               |
|                                                                             |
 ----------------------------------------------------------------------------- 

       N       E                     dE             d eps       ncg     rms          ort
DAV:   1     0.446382672790E+03    0.44638E+03   -0.16851E+04   672   0.161E+03
DAV:   2     0.136585680498E+03   -0.30980E+03   -0.29939E+03   672   0.403E+02
DAV:   3     0.540133371439E+02   -0.82572E+02   -0.80109E+02   672   0.186E+02
DAV:   4     0.249558486382E+02   -0.29057E+02   -0.28456E+02   672   0.123E+02
DAV:   5     0.122263374889E+02   -0.12730E+02   -0.12536E+02   672   0.725E+01
 gam= 0.000 g(H,U,f)=  0.301E+02 0.177E+01 0.610E+00 ort(H,U,f) = 0.000E+00 0.000E+00 0.000E+00
SDA:   6    -0.404737577321E+02   -0.52700E+02   -0.12996E+02   672   0.325E+02 0.000E+00
 gam= 0.382 g(H,U,f)=  0.914E+01 0.459E+00-0.751-104 ort(H,U,f) = 0.928E+01-0.276E+00-0.157-103
DMP:   7    -0.484342815369E+02   -0.79605E+01   -0.52142E+01   672   0.960E+01 0.900E+01
 gam= 0.382 g(H,U,f)=  0.369E+01 0.580E+00-0.109E-14 ort(H,U,f) = 0.414E+01 0.401E+00-0.165E-14
DMP:   8    -0.520423559681E+02   -0.36081E+01   -0.23999E+01   672   0.427E+01 0.454E+01
 gam= 0.382 g(H,U,f)=  0.206E+01 0.591E+00 0.111E+00 ort(H,U,f) = 0.174E+01 0.638E+00 0.159E+00
DMP:   9    -0.538140806099E+02   -0.17717E+01   -0.14909E+01   672   0.276E+01 0.253E+01
 gam= 0.382 g(H,U,f)=  0.105E+01 0.390E+00 0.752E-62 ort(H,U,f) = 0.137E+01 0.643E+00 0.141E-61
DMP:  10    -0.549777684504E+02   -0.11637E+01   -0.88374E+00   672   0.144E+01 0.202E+01
 gam= 0.382 g(H,U,f)=  0.638E+00 0.272E+00 0.000E+00 ort(H,U,f) = 0.907E+00 0.484E+00 0.000E+00
DMP:  11    -0.557229394456E+02   -0.74517E+00   -0.57639E+00   672   0.910E+00 0.139E+01
 gam= 0.382 g(H,U,f)=  0.335E+00 0.172E+00 0.000E+00 ort(H,U,f) = 0.617E+00 0.362E+00 0.000E+00
DMP:  12    -0.562221403868E+02   -0.49920E+00   -0.35196E+00   672   0.506E+00 0.978E+00
 gam= 0.382 g(H,U,f)=  0.194E+00 0.109E+00-0.121-248 ort(H,U,f) = 0.367E+00 0.244E+00-0.293-248
DMP:  13    -0.565295399908E+02   -0.30740E+00   -0.21469E+00   672   0.304E+00 0.610E+00
 gam= 0.382 g(H,U,f)=  0.111E+00 0.649E-01-0.417E-79 ort(H,U,f) = 0.226E+00 0.156E+00-0.120E-78
DMP:  14    -0.567179082522E+02   -0.18837E+00   -0.12876E+00   672   0.176E+00 0.381E+00
 gam= 0.382 g(H,U,f)=  0.630E-01 0.387E-01 0.127E-10 ort(H,U,f) = 0.137E+00 0.958E-01 0.333E-10
DMP:  15    -0.568314472298E+02   -0.11354E+00   -0.76290E-01   672   0.102E+00 0.233E+00
 gam= 0.382 g(H,U,f)=  0.332E-01 0.228E-01 0.208E-04 ort(H,U,f) = 0.790E-01 0.579E-01 0.519E-04
DMP:  16    -0.568986288142E+02   -0.67182E-01   -0.43296E-01   672   0.559E-01 0.137E+00
 gam= 0.382 g(H,U,f)=  0.172E-01 0.131E-01 0.831E-33 ort(H,U,f) = 0.435E-01 0.342E-01 0.246E-32
DMP:  17    -0.569368443502E+02   -0.38216E-01   -0.23989E-01   672   0.303E-01 0.778E-01
 gam= 0.382 g(H,U,f)=  0.862E-02 0.747E-02-0.988E-40 ort(H,U,f) = 0.228E-01 0.199E-01-0.367E-39
DMP:  18    -0.569579524828E+02   -0.21108E-01   -0.12956E-01   672   0.161E-01 0.427E-01
 gam= 0.382 g(H,U,f)=  0.385E-02 0.419E-02-0.609E-36 ort(H,U,f) = 0.114E-01 0.114E-01-0.210E-35
DMP:  19    -0.569693197508E+02   -0.11367E-01   -0.66901E-02   672   0.803E-02 0.228E-01
 gam= 0.382 g(H,U,f)=  0.183E-02 0.227E-02-0.601E-34 ort(H,U,f) = 0.547E-02 0.635E-02-0.232E-33
DMP:  20    -0.569752212830E+02   -0.59015E-02   -0.34443E-02   672   0.410E-02 0.118E-01
 gam= 0.382 g(H,U,f)=  0.950E-03 0.119E-02-0.337E-33 ort(H,U,f) = 0.270E-02 0.345E-02-0.141E-32
DMP:  21    -0.569782748671E+02   -0.30536E-02   -0.17967E-02   672   0.214E-02 0.614E-02
 gam= 0.382 g(H,U,f)=  0.548E-03 0.613E-03-0.364E-33 ort(H,U,f) = 0.145E-02 0.182E-02-0.149E-32
DMP:  22    -0.569798791542E+02   -0.16043E-02   -0.96338E-03   672   0.116E-02 0.327E-02
 gam= 0.382 g(H,U,f)=  0.386E-03 0.305E-03-0.436E-35 ort(H,U,f) = 0.883E-03 0.933E-03-0.211E-34
DMP:  23    -0.569807511900E+02   -0.87204E-03   -0.55419E-03   672   0.692E-03 0.182E-02
 gam= 0.382 g(H,U,f)=  0.303E-03 0.151E-03-0.444E-36 ort(H,U,f) = 0.619E-03 0.468E-03-0.221E-35
DMP:  24    -0.569812596014E+02   -0.50841E-03   -0.34773E-03   672   0.454E-03 0.109E-02
 gam= 0.382 g(H,U,f)=  0.247E-03 0.758E-04 0.125E-35 ort(H,U,f) = 0.477E-03 0.233E-03 0.635E-35
DMP:  25    -0.569815825720E+02   -0.32297E-03   -0.23783E-03   672   0.323E-03 0.711E-03
 gam= 0.382 g(H,U,f)=  0.208E-03 0.394E-04 0.266E-36 ort(H,U,f) = 0.386E-03 0.118E-03 0.152E-35
DMP:  26    -0.569818057028E+02   -0.22313E-03   -0.17590E-03   672   0.247E-03 0.504E-03
 gam= 0.382 g(H,U,f)=  0.175E-03 0.219E-04 0.437E-35 ort(H,U,f) = 0.321E-03 0.615E-04 0.203E-34
DMP:  27    -0.569819717823E+02   -0.16608E-03   -0.13738E-03   672   0.197E-03 0.382E-03
 gam= 0.382 g(H,U,f)=  0.148E-03 0.130E-04 0.143E-35 ort(H,U,f) = 0.270E-03 0.342E-04 0.614E-35
DMP:  28    -0.569821020085E+02   -0.13023E-03   -0.11088E-03   672   0.161E-03 0.304E-03
 gam= 0.382 g(H,U,f)=  0.121E-03 0.829E-05 0.692E-36 ort(H,U,f) = 0.227E-03 0.203E-04 0.193E-35
DMP:  29    -0.569822072319E+02   -0.10522E-03   -0.89610E-04   672   0.130E-03 0.247E-03
 gam= 0.382 g(H,U,f)=  0.100E-03 0.546E-05 0.294E-36 ort(H,U,f) = 0.188E-03 0.128E-04 0.752E-36
DMP:  30    -0.569822922490E+02   -0.85017E-04   -0.72893E-04   672   0.106E-03 0.201E-03
 gam= 0.382 g(H,U,f)=  0.835E-04 0.379E-05 0.144E-36 ort(H,U,f) = 0.154E-03 0.854E-05 0.242E-36
DMP:  31    -0.569823612406E+02   -0.68992E-04   -0.59789E-04   672   0.873E-04 0.163E-03
 gam= 0.382 g(H,U,f)=  0.689E-04 0.261E-05 0.484E-37 ort(H,U,f) = 0.126E-03 0.583E-05 0.106E-36
DMP:  32    -0.569824174137E+02   -0.56173E-04   -0.48703E-04   672   0.715E-04 0.132E-03
 gam= 0.382 g(H,U,f)=  0.616E-04 0.195E-05-0.169E-37 ort(H,U,f) = 0.987E-04 0.416E-05-0.218E-37
DMP:  33    -0.569824622306E+02   -0.44817E-04   -0.41125E-04   672   0.635E-04 0.103E-03
 gam= 0.382 g(H,U,f)=  0.571E-04 0.132E-05 0.197E-40 ort(H,U,f) = 0.760E-04 0.291E-05 0.650E-40
DMP:  34    -0.569824985344E+02   -0.36304E-04   -0.35403E-04   672   0.584E-04 0.789E-04
 gam= 0.382 g(H,U,f)=  0.628E-04 0.117E-05-0.876E-37 ort(H,U,f) = 0.521E-04 0.225E-05-0.723E-37
DMP:  35    -0.569825269505E+02   -0.28416E-04   -0.33904E-04   672   0.640E-04 0.544E-04
 gam= 0.382 g(H,U,f)=  0.850E-04 0.685E-06-0.237E-38 ort(H,U,f) = 0.241E-04 0.145E-05 0.247E-37
DMP:  36    -0.569825491503E+02   -0.22200E-04   -0.38193E-04   672   0.857E-04 0.256E-04
 gam= 0.382 g(H,U,f)=  0.134E-03 0.105E-05-0.220E-36 ort(H,U,f) =-0.181E-04 0.128E-05-0.518E-37
DMP:  37    -0.569825646206E+02   -0.15470E-04   -0.51502E-04   672   0.135E-03-0.169E-04
 gam= 0.382 g(H,U,f)=  0.235E-03 0.645E-06-0.964E-37 ort(H,U,f) =-0.835E-04 0.377E-06 0.142E-36
DMP:  38    -0.569825739896E+02   -0.93690E-05   -0.81577E-04   672   0.236E-03-0.831E-04
 gam= 0.382 g(H,U,f)=  0.458E-03 0.220E-05-0.693E-36 ort(H,U,f) =-0.213E-03 0.323E-06 0.118E-36
DMP:  39    -0.569825720494E+02    0.19402E-05   -0.15151E-03   672   0.460E-03-0.213E-03
 gam= 0.382 g(H,U,f)=  0.900E-03 0.249E-05-0.563E-36 ort(H,U,f) =-0.479E-03-0.154E-05 0.483E-36
DMP:  40    -0.569825516615E+02    0.20388E-04   -0.28751E-03   672   0.902E-03-0.480E-03
 gam= 0.382 g(H,U,f)=  0.151E-02 0.750E-05-0.247E-35 ort(H,U,f) =-0.900E-03-0.242E-05 0.922E-36
DMP:  41    -0.569825151235E+02    0.36538E-04   -0.47026E-03   672   0.152E-02-0.903E-03
 gam= 0.382 g(H,U,f)=  0.211E-02 0.107E-04-0.185E-35 ort(H,U,f) =-0.137E-02-0.734E-05 0.131E-35
DMP:  42    -0.569824748215E+02    0.40302E-04   -0.63800E-03   672   0.212E-02-0.138E-02
 gam= 0.382 g(H,U,f)=  0.250E-02 0.234E-04-0.837E-35 ort(H,U,f) =-0.171E-02-0.113E-04 0.404E-35
DMP:  43    -0.569824496000E+02    0.25222E-04   -0.74582E-03   672   0.252E-02-0.172E-02
 gam= 0.382 g(H,U,f)=  0.271E-02 0.322E-04-0.374E-35 ort(H,U,f) =-0.190E-02-0.221E-04 0.256E-35
DMP:  44    -0.569824385387E+02    0.11061E-04   -0.80449E-03   672   0.275E-02-0.192E-02
 gam= 0.382 g(H,U,f)=  0.281E-02 0.536E-04-0.223E-34 ort(H,U,f) =-0.202E-02-0.304E-04 0.125E-34
DMP:  45    -0.569824293116E+02    0.92271E-05   -0.83125E-03   672   0.286E-02-0.205E-02
 gam= 0.382 g(H,U,f)=  0.258E-02 0.638E-04-0.269E-33 ort(H,U,f) =-0.191E-02-0.456E-04 0.192E-33
DMP:  46    -0.569824547131E+02   -0.25402E-04   -0.75791E-03   672   0.264E-02-0.196E-02
 gam= 0.382 g(H,U,f)=  0.241E-02 0.820E-04-0.365E-34 ort(H,U,f) =-0.179E-02-0.524E-04 0.233E-34
DMP:  47    -0.569824638462E+02   -0.91330E-05   -0.71492E-03   672   0.249E-02-0.184E-02
 gam= 0.382 g(H,U,f)=  0.212E-02 0.800E-04-0.251E-33 ort(H,U,f) =-0.156E-02-0.611E-04 0.192E-33
DMP:  48    -0.569824983108E+02   -0.34465E-04   -0.63024E-03   672   0.220E-02-0.162E-02
 gam= 0.382 g(H,U,f)=  0.198E-02 0.795E-04-0.302E-34 ort(H,U,f) =-0.150E-02-0.564E-04 0.215E-34
DMP:  49    -0.569825009192E+02   -0.26083E-05   -0.58646E-03   672   0.206E-02-0.156E-02
 gam= 0.382 g(H,U,f)=  0.154E-02 0.642E-04-0.196E-33 ort(H,U,f) =-0.120E-02-0.520E-04 0.158E-33
DMP:  50    -0.569825446116E+02   -0.43692E-04   -0.45153E-03   672   0.161E-02-0.125E-02
 gam= 0.382 g(H,U,f)=  0.124E-02 0.506E-04-0.141E-34 ort(H,U,f) =-0.991E-03-0.393E-04 0.110E-34
DMP:  51    -0.569825632545E+02   -0.18643E-04   -0.36025E-03   672   0.129E-02-0.103E-02
 gam= 0.382 g(H,U,f)=  0.836E-03 0.353E-04-0.130E-33 ort(H,U,f) =-0.684E-03-0.297E-04 0.108E-33
DMP:  52    -0.569826017052E+02   -0.38451E-04   -0.23946E-03   672   0.871E-03-0.713E-03
 gam= 0.382 g(H,U,f)=  0.591E-03 0.230E-04-0.477E-35 ort(H,U,f) =-0.490E-03-0.193E-04 0.405E-35
DMP:  53    -0.569826187719E+02   -0.17067E-04   -0.16760E-03   672   0.614E-03-0.509E-03
 gam= 0.382 g(H,U,f)=  0.344E-03 0.141E-04-0.683E-34 ort(H,U,f) =-0.295E-03-0.122E-04 0.582E-34
DMP:  54    -0.569826419193E+02   -0.23147E-04   -0.96532E-04   672   0.359E-03-0.307E-03
 gam= 0.382 g(H,U,f)=  0.210E-03 0.765E-05-0.126E-35 ort(H,U,f) =-0.181E-03-0.693E-05 0.117E-35
DMP:  55    -0.569826520390E+02   -0.10120E-04   -0.58389E-04   672   0.218E-03-0.188E-03
 gam= 0.382 g(H,U,f)=  0.106E-03 0.407E-05-0.460E-36 ort(H,U,f) =-0.934E-04-0.362E-05 0.397E-36
DMP:  56    -0.569826622698E+02   -0.10231E-04   -0.29306E-04   672   0.110E-03-0.970E-04
 gam= 0.382 g(H,U,f)=  0.564E-04 0.182E-05-0.255E-36 ort(H,U,f) =-0.492E-04-0.178E-05 0.265E-36
DMP:  57    -0.569826664589E+02   -0.41891E-05   -0.15514E-04   672   0.583E-04-0.510E-04
 gam= 0.382 g(H,U,f)=  0.244E-04 0.790E-06-0.109E-36 ort(H,U,f) =-0.212E-04-0.738E-06 0.957E-37
DMP:  58    -0.569826700474E+02   -0.35885E-05   -0.67408E-05   672   0.252E-04-0.219E-04
 gam= 0.382 g(H,U,f)=  0.106E-04 0.281E-06-0.336E-37 ort(H,U,f) =-0.828E-05-0.289E-06 0.404E-37
DMP:  59    -0.569826716031E+02   -0.15557E-05   -0.30628E-05   672   0.109E-04-0.857E-05
srun: Job step aborted: Waiting up to 32 seconds for job step to finish.
slurmstepd: error: *** JOB 28495441 ON c3-10 CANCELLED AT 2019-11-04T06:40:38 DUE TO TIME LIMIT ***
forrtl: error (78): process killed (SIGTERM)

Stack trace terminated abnormally.

slurmstepd: error: *** STEP 28495441.0 ON c3-10 CANCELLED AT 2019-11-04T06:40:38 DUE TO TIME LIMIT ***
Currently Loaded Modulefiles:
forrtl: error (78): process killed (SIGTERM)
Image              PC                Routine            Line        Source             
vasp_std           00000000058E929A  Unknown               Unknown  Unknown
libpthread-2.12.s  00007F322956E7E0  Unknown               Unknown  Unknown

Stack trace terminated abnormally.
forrtl: error (78): process killed (SIGTERM)
Image              PC                Routine            Line        Source             
vasp_std           00000000058E929A  Unknown               Unknown  Unknown
libpthread-2.12.s  00007F4B837B47E0  Unknown               Unknown  Unknown
libmpi.so.12       00007F4B825C247D  PMPIDI_CH3I_Progr     Unknown  Unknown

Stack trace terminated abnormally.
forrtl: error (78): process killed (SIGTERM)
Image              PC                Routine            Line        Source             
vasp_std           00000000058E929A  Unknown               Unknown  Unknown
libpthread-2.12.s  00007F2F4298C7E0  Unknown               Unknown  Unknown

Stack trace terminated abnormally.
forrtl: error (78): process killed (SIGTERM)
Image              PC                Routine            Line        Source             
vasp_std           00000000058E929A  Unknown               Unknown  Unknown
libpthread-2.12.s  00007F7E2D73D7E0  Unknown               Unknown  Unknown
libc-2.12.so       00007F7E2BF67527  __sched_yield         Unknown  Unknown
libmpi.so.12       00007F7E2C54B598  PMPIDI_CH3I_Progr     Unknown  Unknown

Stack trace terminated abnormally.
  1) Anaconda3/5.1.0       3) vesta/3.3.8           5) intel/2016.1
  2) gnuplot/5.0.4         4) imagemagick/6.7.9-0   6) vasp/5.4.1.Feb16

Job script resource usage:
forrtl: error (78): process killed (SIGTERM)
Image              PC                Routine            Line        Source             
vasp_std           00000000058E929A  Unknown               Unknown  Unknown
libpthread-2.12.s  00007FCFA26517E0  Unknown               Unknown  Unknown

Stack trace terminated abnormally.
forrtl: error (78): process killed (SIGTERM)
Image              PC                Routine            Line        Source             
vasp_std           00000000058E929A  Unknown               Unknown  Unknown
libpthread-2.12.s  00007F567F61F7E0  Unknown               Unknown  Unknown

Stack trace terminated abnormally.
forrtl: error (78): process killed (SIGTERM)
Image              PC                Routine            Line        Source             
vasp_std           00000000058E929A  Unknown               Unknown  Unknown
libpthread-2.12.s  00007FC43F07D7E0  Unknown               Unknown  Unknown

Stack trace terminated abnormally.
forrtl: error (78): process killed (SIGTERM)
Image              PC                Routine            Line        Source             
vasp_std           00000000058E929A  Unknown               Unknown  Unknown
libpthread-2.12.s  00007FB6759327E0  Unknown               Unknown  Unknown

Stack trace terminated abnormally.
       JobID  MaxVMSize     MaxRSS 
------------ ---------- ---------- 
28495441.ba+    605280K      7928K 

Job step resource usage:
forrtl: error (78): process killed (SIGTERM)
Image              PC                Routine            Line        Source             
vasp_std           00000000058E929A  Unknown               Unknown  Unknown
libpthread-2.12.s  00007F703A8727E0  Unknown               Unknown  Unknown

Stack trace terminated abnormally.
forrtl: error (78): process killed (SIGTERM)
Image              PC                Routine            Line        Source             
vasp_std           00000000058E929A  Unknown               Unknown  Unknown
libpthread-2.12.s  00007FD806E6C7E0  Unknown               Unknown  Unknown

Stack trace terminated abnormally.
forrtl: error (78): process killed (SIGTERM)
Image              PC                Routine            Line        Source             
vasp_std           00000000058E929A  Unknown               Unknown  Unknown
libpthread-2.12.s  00007FCA5E67C7E0  Unknown               Unknown  Unknown

Stack trace terminated abnormally.
forrtl: error (78): process killed (SIGTERM)
Image              PC                Routine            Line        Source             
vasp_std           00000000058E929A  Unknown               Unknown  Unknown
libpthread-2.12.s  00007FBE1114A7E0  Unknown               Unknown  Unknown

Stack trace terminated abnormally.
forrtl: error (78): process killed (SIGTERM)
Image              PC                Routine            Line        Source             
vasp_std           00000000058E929A  Unknown               Unknown  Unknown
libpthread-2.12.s  00007F9BD4C3C7E0  Unknown               Unknown  Unknown

Stack trace terminated abnormally.
forrtl: error (78): process killed (SIGTERM)
Image              PC                Routine            Line        Source             
vasp_std           00000000058E929A  Unknown               Unknown  Unknown
libpthread-2.12.s  00007F871212A7E0  Unknown               Unknown  Unknown

Stack trace terminated abnormally.
forrtl: error (78): process killed (SIGTERM)
Image              PC                Routine            Line        Source             
vasp_std           00000000058E929A  Unknown               Unknown  Unknown
libpthread-2.12.s  00007EFDDEE697E0  Unknown               Unknown  Unknown
libmpi.so.12       00007EFDDDC6F09E  MPIDI_CH3_iSendv      Unknown  Unknown
libmpi.so.12       00007EFDDDC83812  MPIDI_CH3_EagerCo     Unknown  Unknown

Stack trace terminated abnormally.
       JobID    JobName  AllocCPUS  MaxVMSize     MaxRSS    Elapsed ExitCode 
------------ ---------- ---------- ---------- ---------- ---------- -------- 
28495441        jobname         16                         10:00:13      0:0 
28495441.0    pmi_proxy          1                         10:00:07      0:0 

Job 28495441 ("jobname") completed on c3-10 at Mon Nov 4 06:40:38 CET 2019
