perl: warning: Setting locale failed.
perl: warning: Please check that your locale settings:
	LANGUAGE = (unset),
	LC_ALL = (unset),
	LC_CTYPE = "UTF-8",
	LANG = "en_US.iso885915"
    are supported and installed on your system.
perl: warning: Falling back to the standard locale ("C").
Starting job 28490975 ("jobname") on c4-31 at Sun Nov 3 14:49:17 CET 2019
 running on   16 total cores
 distrk:  each k-point on   16 cores,    1 groups
 distr:  one band on    4 cores,    4 groups
 using from now: INCAR     
 vasp.5.4.4.18Apr17-6-g9f103f2a35 (build Jun 30 2017 11:15:00) complex          
  
 POSCAR found type information on POSCAR  Mo S 
 POSCAR found :  2 types and       6 ions
 scaLAPACK will be used
 LDA part: xc-table for Pade appr. of Perdew
 POSCAR, INCAR and KPOINTS ok, starting setup
 FFT: planning ...
 WAVECAR not read
 WARNING: random wavefunctions but no delay for mixing, default for NELMDL
 entering main loop
       N       E                     dE             d eps       ncg     rms          ort
DAV:   1     0.446393252758E+03    0.44639E+03   -0.16698E+04   672   0.160E+03
DAV:   2     0.136564242930E+03   -0.30983E+03   -0.29918E+03   672   0.403E+02
DAV:   3     0.540329009750E+02   -0.82531E+02   -0.79920E+02   672   0.186E+02
DAV:   4     0.249500201089E+02   -0.29083E+02   -0.28350E+02   672   0.123E+02
DAV:   5     0.122260256541E+02   -0.12724E+02   -0.12421E+02   672   0.723E+01
 gam= 0.000 g(H,U,f)=  0.301E+02 0.180E+01 0.546E+00 ort(H,U,f) = 0.000E+00 0.000E+00 0.000E+00
SDA:   6    -0.404421782441E+02   -0.52668E+02   -0.12987E+02   672   0.325E+02 0.000E+00
 gam= 0.382 g(H,U,f)=  0.919E+01 0.467E+00 0.100E-09 ort(H,U,f) = 0.922E+01-0.296E+00 0.183E-09
DMP:   7    -0.484324312077E+02   -0.79903E+01   -0.52254E+01   672   0.966E+01 0.892E+01
 gam= 0.382 g(H,U,f)=  0.369E+01 0.580E+00-0.548-100 ort(H,U,f) = 0.414E+01 0.401E+00-0.962-100
DMP:   8    -0.520420270472E+02   -0.36096E+01   -0.24005E+01   672   0.427E+01 0.454E+01
 gam= 0.382 g(H,U,f)=  0.207E+01 0.594E+00 0.520E-10 ort(H,U,f) = 0.173E+01 0.638E+00 0.756E-10
DMP:   9    -0.538109572444E+02   -0.17689E+01   -0.14260E+01   672   0.266E+01 0.237E+01
 gam= 0.382 g(H,U,f)=  0.105E+01 0.390E+00 0.453E-10 ort(H,U,f) = 0.137E+01 0.644E+00 0.940E-10
DMP:  10    -0.549773461281E+02   -0.11664E+01   -0.88361E+00   672   0.144E+01 0.202E+01
 gam= 0.382 g(H,U,f)=  0.639E+00 0.272E+00 0.000E+00 ort(H,U,f) = 0.907E+00 0.484E+00 0.000E+00
DMP:  11    -0.557228221288E+02   -0.74548E+00   -0.57701E+00   672   0.912E+00 0.139E+01
 gam= 0.382 g(H,U,f)=  0.334E+00 0.172E+00 0.000E+00 ort(H,U,f) = 0.616E+00 0.362E+00 0.000E+00
DMP:  12    -0.562220936786E+02   -0.49927E+00   -0.35191E+00   672   0.506E+00 0.978E+00
 gam= 0.382 g(H,U,f)=  0.194E+00 0.109E+00 0.000E+00 ort(H,U,f) = 0.367E+00 0.244E+00 0.000E+00
DMP:  13    -0.565293328236E+02   -0.30724E+00   -0.21482E+00   672   0.304E+00 0.611E+00
 gam= 0.382 g(H,U,f)=  0.111E+00 0.649E-01-0.838-137 ort(H,U,f) = 0.226E+00 0.156E+00-0.242-136
DMP:  14    -0.567178209459E+02   -0.18849E+00   -0.12878E+00   672   0.176E+00 0.381E+00
 gam= 0.382 g(H,U,f)=  0.630E-01 0.387E-01-0.641E-39 ort(H,U,f) = 0.137E+00 0.958E-01-0.198E-38
DMP:  15    -0.568314185108E+02   -0.11360E+00   -0.76307E-01   672   0.102E+00 0.233E+00
 gam= 0.382 g(H,U,f)=  0.332E-01 0.228E-01 0.235E-21 ort(H,U,f) = 0.790E-01 0.579E-01 0.586E-21
DMP:  16    -0.568985970155E+02   -0.67179E-01   -0.43291E-01   672   0.559E-01 0.137E+00
 gam= 0.382 g(H,U,f)=  0.172E-01 0.131E-01 0.835E-70 ort(H,U,f) = 0.436E-01 0.342E-01 0.247E-69
DMP:  17    -0.569368192798E+02   -0.38222E-01   -0.23997E-01   672   0.303E-01 0.778E-01
 gam= 0.382 g(H,U,f)=  0.863E-02 0.747E-02-0.261E-84 ort(H,U,f) = 0.228E-01 0.199E-01-0.970E-84
DMP:  18    -0.569579389040E+02   -0.21120E-01   -0.12962E-01   672   0.161E-01 0.427E-01
 gam= 0.382 g(H,U,f)=  0.385E-02 0.419E-02-0.219E-78 ort(H,U,f) = 0.114E-01 0.114E-01-0.754E-78
DMP:  19    -0.569693112401E+02   -0.11372E-01   -0.66932E-02   672   0.804E-02 0.228E-01
 gam= 0.382 g(H,U,f)=  0.183E-02 0.227E-02-0.457E-75 ort(H,U,f) = 0.548E-02 0.635E-02-0.177E-74
DMP:  20    -0.569752152038E+02   -0.59040E-02   -0.34466E-02   672   0.410E-02 0.118E-01
 gam= 0.382 g(H,U,f)=  0.952E-03 0.119E-02 0.901E-14 ort(H,U,f) = 0.270E-02 0.345E-02 0.388E-13
DMP:  21    -0.569782710545E+02   -0.30559E-02   -0.17983E-02   672   0.215E-02 0.615E-02
 gam= 0.382 g(H,U,f)=  0.549E-03 0.613E-03-0.301E-73 ort(H,U,f) = 0.145E-02 0.182E-02-0.123E-72
DMP:  22    -0.569798767317E+02   -0.16057E-02   -0.96429E-03   672   0.116E-02 0.327E-02
 gam= 0.382 g(H,U,f)=  0.387E-03 0.305E-03-0.804E-68 ort(H,U,f) = 0.884E-03 0.933E-03-0.389E-67
DMP:  23    -0.569807495085E+02   -0.87278E-03   -0.55470E-03   672   0.693E-03 0.182E-02
 gam= 0.382 g(H,U,f)=  0.303E-03 0.151E-03-0.201E-71 ort(H,U,f) = 0.620E-03 0.468E-03-0.100E-70
DMP:  24    -0.569812583727E+02   -0.50886E-03   -0.34798E-03   672   0.454E-03 0.109E-02
 gam= 0.382 g(H,U,f)=  0.247E-03 0.759E-04 0.298E-73 ort(H,U,f) = 0.478E-03 0.233E-03 0.151E-72
DMP:  25    -0.569815815721E+02   -0.32320E-03   -0.23798E-03   672   0.323E-03 0.711E-03
 gam= 0.382 g(H,U,f)=  0.208E-03 0.394E-04 0.308E-74 ort(H,U,f) = 0.386E-03 0.118E-03 0.177E-73
DMP:  26    -0.569818048558E+02   -0.22328E-03   -0.17597E-03   672   0.247E-03 0.504E-03
 gam= 0.382 g(H,U,f)=  0.175E-03 0.219E-04 0.601E-75 ort(H,U,f) = 0.321E-03 0.616E-04 0.279E-74
DMP:  27    -0.569819710255E+02   -0.16617E-03   -0.13739E-03   672   0.197E-03 0.383E-03
 gam= 0.382 g(H,U,f)=  0.148E-03 0.130E-04 0.152E-75 ort(H,U,f) = 0.270E-03 0.342E-04 0.656E-75
DMP:  28    -0.569821012856E+02   -0.13026E-03   -0.11088E-03   672   0.161E-03 0.304E-03
 gam= 0.382 g(H,U,f)=  0.121E-03 0.829E-05 0.632E-76 ort(H,U,f) = 0.227E-03 0.203E-04 0.177E-75
DMP:  29    -0.569822065249E+02   -0.10524E-03   -0.89611E-04   672   0.130E-03 0.247E-03
 gam= 0.382 g(H,U,f)=  0.100E-03 0.546E-05 0.240E-76 ort(H,U,f) = 0.188E-03 0.128E-04 0.613E-76
DMP:  30    -0.569822915607E+02   -0.85036E-04   -0.72929E-04   672   0.106E-03 0.201E-03
 gam= 0.382 g(H,U,f)=  0.837E-04 0.379E-05 0.107E-76 ort(H,U,f) = 0.154E-03 0.854E-05 0.182E-76
DMP:  31    -0.569823605979E+02   -0.69037E-04   -0.59870E-04   672   0.875E-04 0.163E-03
slurmstepd: error: *** JOB 28490975 ON c4-31 CANCELLED AT 2019-11-03T19:49:26 DUE TO TIME LIMIT ***
srun: Job step aborted: Waiting up to 32 seconds for job step to finish.
slurmstepd: error: *** STEP 28490975.0 ON c4-31 CANCELLED AT 2019-11-03T19:49:26 DUE TO TIME LIMIT ***

Currently Loaded Modulefiles:
  1) Anaconda3/5.1.0       3) vesta/3.3.8           5) intel/2016.1
  2) gnuplot/5.0.4         4) imagemagick/6.7.9-0   6) vasp/5.4.1.Feb16

Job script resource usage:
forrtl: error (78): process killed (SIGTERM)

Stack trace terminated abnormally.
forrtl: error (78): process killed (SIGTERM)

Stack trace terminated abnormally.
forrtl: error (78): process killed (SIGTERM)

Stack trace terminated abnormally.
forrtl: error (78): process killed (SIGTERM)

Stack trace terminated abnormally.
forrtl: error (78): process killed (SIGTERM)

Stack trace terminated abnormally.
forrtl: error (78): process killed (SIGTERM)

Stack trace terminated abnormally.
forrtl: error (78): process killed (SIGTERM)

Stack trace terminated abnormally.
forrtl: error (78): process killed (SIGTERM)

Stack trace terminated abnormally.
forrtl: error (78): process killed (SIGTERM)

Stack trace terminated abnormally.
forrtl: error (78): process killed (SIGTERM)

Stack trace terminated abnormally.
forrtl: error (78): process killed (SIGTERM)

Stack trace terminated abnormally.
forrtl: error (78): process killed (SIGTERM)

Stack trace terminated abnormally.
forrtl: error (78): process killed (SIGTERM)

Stack trace terminated abnormally.
forrtl: error (78): process killed (SIGTERM)

Stack trace terminated abnormally.
forrtl: error (78): process killed (SIGTERM)

Stack trace terminated abnormally.
forrtl: error (78): process killed (SIGTERM)

Stack trace terminated abnormally.
       JobID  MaxVMSize     MaxRSS 
------------ ---------- ---------- 
28490975.ba+    605280K      7969K 

Job step resource usage:
       JobID    JobName  AllocCPUS  MaxVMSize     MaxRSS    Elapsed ExitCode 
------------ ---------- ---------- ---------- ---------- ---------- -------- 
28490975        jobname         16                         05:00:11      0:0 
28490975.0    pmi_proxy          1                         05:00:09      0:0 

Job 28490975 ("jobname") completed on c4-31 at Sun Nov 3 19:49:26 CET 2019
