<?xml version="1.0" encoding="ISO-8859-1"?>
<modeling>
 <generator>
  <i name="program" type="string">vasp </i>
  <i name="version" type="string">5.4.4.18Apr17-6-g9f103f2a35  </i>
  <i name="subversion" type="string">(build Jun 30 2017 11:15:00) complex            parallel </i>
  <i name="platform" type="string">STALLO_VASP_5.4.4 </i>
  <i name="date" type="string">2019 11 03 </i>
  <i name="time" type="string">20:40:33 </i>
 </generator>
 <incar>
  <i type="string" name="PREC">accurate  ! low/normal/accurate</i>
  <i type="string" name="ALGO"> Damped    ! Algorithm for electronic re</i>
  <i type="int" name="NELM">   300</i>
  <i type="int" name="NELMIN">     4</i>
  <i name="EDIFF">      0.00000100</i>
  <i type="int" name="NSW">     0</i>
  <i name="SYMPREC">      0.00010000</i>
  <i name="ENCUT">    650.00000000</i>
  <i type="int" name="NEDOS">  2801</i>
  <i type="logical" name="LREAL"> F  </i>
  <i name="TIME">      0.40000000</i>
  <i name="EMIN">     -3.00000000</i>
  <i name="EMAX">      4.00000000</i>
  <i type="int" name="ISMEAR">    -5</i>
  <i name="SIGMA">      0.01000000</i>
  <i type="logical" name="LWAVE"> F  </i>
  <i type="int" name="LORBIT">    11</i>
  <v type="int" name="KPOINT_BSE">    -1     0     0     0</v>
  <i type="int" name="NELM">   300</i>
  <i type="logical" name="LHFCALC"> T  </i>
  <i name="HFSCREEN">      0.20000000</i>
 </incar>
 <structure name="primitive_cell" >
  <crystal>
   <varray name="basis" >
    <v>       3.18347651       0.00000000       0.00000000 </v>
    <v>      -1.59173825       2.75697153       0.00000000 </v>
    <v>       0.00000000       0.00000000      14.86829191 </v>
   </varray>
   <i name="volume">    130.49534161 </i>
   <varray name="rec_basis" >
    <v>       0.31412200       0.18135842       0.00000000 </v>
    <v>       0.00000000       0.36271684       0.00000000 </v>
    <v>       0.00000000       0.00000000       0.06725722 </v>
   </varray>
  </crystal>
  <varray name="positions" >
   <v>       0.33333300      -0.33333300       0.25000000 </v>
   <v>      -0.33333400       0.33333300       0.35515530 </v>
   <v>      -0.33333300       0.33333300       0.14484470 </v>
   <v>       0.33333300      -0.33333300      -0.14484470 </v>
   <v>       0.33333400      -0.33333300      -0.35515530 </v>
   <v>      -0.33333300       0.33333300      -0.25000000 </v>
  </varray>
 </structure>
 <varray name="primitive_index" >
  <v type="int" >        1 </v>
  <v type="int" >        5 </v>
  <v type="int" >        4 </v>
  <v type="int" >        3 </v>
  <v type="int" >        6 </v>
  <v type="int" >        2 </v>
 </varray>
 <kpoints>
  <generation param="Gamma">
   <v type="int" name="divisions">      10       10        3 </v>
   <v name="usershift">      0.00000000       0.00000000       0.00000000 </v>
   <v name="genvec1">      0.10000000      -0.00000000       0.00000000 </v>
   <v name="genvec2">      0.00000000       0.10000000       0.00000000 </v>
   <v name="genvec3">      0.00000000       0.00000000       0.33333333 </v>
   <v name="shift">      0.00000000       0.00000000       0.00000000 </v>
  </generation>
  <varray name="kpointlist" >
   <v>       0.00000000       0.00000000       0.00000000 </v>
   <v>       0.10000000      -0.00000000       0.00000000 </v>
   <v>       0.20000000       0.00000000       0.00000000 </v>
   <v>       0.30000000      -0.00000000       0.00000000 </v>
   <v>       0.40000000       0.00000000       0.00000000 </v>
   <v>       0.50000000      -0.00000000       0.00000000 </v>
   <v>       0.10000000       0.10000000       0.00000000 </v>
   <v>       0.20000000       0.10000000       0.00000000 </v>
   <v>       0.30000000       0.10000000       0.00000000 </v>
   <v>       0.40000000       0.10000000       0.00000000 </v>
   <v>       0.20000000       0.20000000       0.00000000 </v>
   <v>       0.30000000       0.20000000       0.00000000 </v>
   <v>       0.40000000       0.20000000       0.00000000 </v>
   <v>       0.30000000       0.30000000       0.00000000 </v>
   <v>       0.00000000       0.00000000       0.33333333 </v>
   <v>       0.10000000      -0.00000000       0.33333333 </v>
   <v>       0.20000000       0.00000000       0.33333333 </v>
   <v>       0.30000000      -0.00000000       0.33333333 </v>
   <v>       0.40000000       0.00000000       0.33333333 </v>
   <v>       0.50000000      -0.00000000       0.33333333 </v>
   <v>       0.10000000       0.10000000       0.33333333 </v>
   <v>       0.20000000       0.10000000       0.33333333 </v>
   <v>       0.30000000       0.10000000       0.33333333 </v>
   <v>       0.40000000       0.10000000       0.33333333 </v>
   <v>       0.20000000       0.20000000       0.33333333 </v>
   <v>       0.30000000       0.20000000       0.33333333 </v>
   <v>       0.40000000       0.20000000       0.33333333 </v>
   <v>       0.30000000       0.30000000       0.33333333 </v>
  </varray>
  <varray name="weights" >
   <v>       0.00333333 </v>
   <v>       0.02000000 </v>
   <v>       0.02000000 </v>
   <v>       0.02000000 </v>
   <v>       0.02000000 </v>
   <v>       0.01000000 </v>
   <v>       0.02000000 </v>
   <v>       0.04000000 </v>
   <v>       0.04000000 </v>
   <v>       0.04000000 </v>
   <v>       0.02000000 </v>
   <v>       0.04000000 </v>
   <v>       0.02000000 </v>
   <v>       0.02000000 </v>
   <v>       0.00666667 </v>
   <v>       0.04000000 </v>
   <v>       0.04000000 </v>
   <v>       0.04000000 </v>
   <v>       0.04000000 </v>
   <v>       0.02000000 </v>
   <v>       0.04000000 </v>
   <v>       0.08000000 </v>
   <v>       0.08000000 </v>
   <v>       0.08000000 </v>
   <v>       0.04000000 </v>
   <v>       0.08000000 </v>
   <v>       0.04000000 </v>
   <v>       0.04000000 </v>
  </varray>
  <varray name="tetrahedronlist"  type="int" >
   <v type="int" >        8        2        2        7       16 </v>
   <v type="int" >        8        1        2        2       16 </v>
   <v type="int" >        4        1        2       15       16 </v>
   <v type="int" >        4        2        7       16       21 </v>
   <v type="int" >        8        2       16       16       21 </v>
   <v type="int" >        8        2       15       16       16 </v>
   <v type="int" >        8        3        7        8       21 </v>
   <v type="int" >        8        2        3        7       21 </v>
   <v type="int" >        4        2        3       16       21 </v>
   <v type="int" >        4        3        8       21       22 </v>
   <v type="int" >        8        3       17       21       22 </v>
   <v type="int" >        8        3       16       17       21 </v>
   <v type="int" >        8        4        8        9       22 </v>
   <v type="int" >        8        3        4        8       22 </v>
   <v type="int" >        4        3        4       17       22 </v>
   <v type="int" >        4        4        9       22       23 </v>
   <v type="int" >        8        4       18       22       23 </v>
   <v type="int" >        8        4       17       18       22 </v>
   <v type="int" >        8        5        9       10       23 </v>
   <v type="int" >        8        4        5        9       23 </v>
   <v type="int" >        4        4        5       18       23 </v>
   <v type="int" >        4        5       10       23       24 </v>
   <v type="int" >        8        5       19       23       24 </v>
   <v type="int" >        8        5       18       19       23 </v>
   <v type="int" >        8        6       10       10       24 </v>
   <v type="int" >        8        5        6       10       24 </v>
   <v type="int" >        4        5        6       19       24 </v>
   <v type="int" >        4        6       10       24       24 </v>
   <v type="int" >        4        6       20       24       24 </v>
   <v type="int" >        8        6       19       20       24 </v>
   <v type="int" >        8        5        9       10       24 </v>
   <v type="int" >        4        5        6       20       24 </v>
   <v type="int" >        4        5        9       23       24 </v>
   <v type="int" >        8        5       19       20       24 </v>
   <v type="int" >        8        4        8        9       23 </v>
   <v type="int" >        4        4        5       19       23 </v>
   <v type="int" >        4        4        8       22       23 </v>
   <v type="int" >        8        4       18       19       23 </v>
   <v type="int" >        8        3        7        8       22 </v>
   <v type="int" >        4        3        4       18       22 </v>
   <v type="int" >        4        3        7       21       22 </v>
   <v type="int" >        8        3       17       18       22 </v>
   <v type="int" >        4        2        2        7       21 </v>
   <v type="int" >        4        2        3       17       21 </v>
   <v type="int" >        4        2        2       16       21 </v>
   <v type="int" >        8        2       16       17       21 </v>
   <v type="int" >        4        1        2       16       16 </v>
   <v type="int" >        4        1       15       16       16 </v>
   <v type="int" >        8        3        7        8       17 </v>
   <v type="int" >        8        2        3        7       17 </v>
   <v type="int" >        4        2        7       16       17 </v>
   <v type="int" >        4        7        8       17       22 </v>
   <v type="int" >        8        7       17       21       22 </v>
   <v type="int" >        8        7       16       17       21 </v>
   <v type="int" >        8        8        8       11       22 </v>
   <v type="int" >        8        7        8        8       22 </v>
   <v type="int" >        4        7        8       21       22 </v>
   <v type="int" >        4        8       11       22       25 </v>
   <v type="int" >        8        8       22       22       25 </v>
   <v type="int" >        8        8       21       22       22 </v>
   <v type="int" >        8        9       11       12       25 </v>
   <v type="int" >        8        8        9       11       25 </v>
   <v type="int" >        4        8        9       22       25 </v>
   <v type="int" >        4        9       12       25       26 </v>
   <v type="int" >        8        9       23       25       26 </v>
   <v type="int" >        8        9       22       23       25 </v>
   <v type="int" >        8       10       12       13       26 </v>
   <v type="int" >        8        9       10       12       26 </v>
   <v type="int" >        4        9       10       23       26 </v>
   <v type="int" >        4       10       13       26       27 </v>
   <v type="int" >        8       10       24       26       27 </v>
   <v type="int" >        8       10       23       24       26 </v>
   <v type="int" >        8       10       12       13       27 </v>
   <v type="int" >        4       10       10       13       27 </v>
   <v type="int" >        4       10       10       24       27 </v>
   <v type="int" >        4       10       12       26       27 </v>
   <v type="int" >        8       10       24       24       27 </v>
   <v type="int" >        8        9       11       12       26 </v>
   <v type="int" >        4        9       10       24       26 </v>
   <v type="int" >        4        9       11       25       26 </v>
   <v type="int" >        8        9       23       24       26 </v>
   <v type="int" >        4        8        8       11       25 </v>
   <v type="int" >        4        8        9       23       25 </v>
   <v type="int" >        4        8        8       22       25 </v>
   <v type="int" >        8        8       22       23       25 </v>
   <v type="int" >        4        7        8       22       22 </v>
   <v type="int" >        4        3        7       17       22 </v>
   <v type="int" >        4        7       21       22       22 </v>
   <v type="int" >        4        2        7       17       21 </v>
   <v type="int" >        8        4        8        9       18 </v>
   <v type="int" >        8        3        4        8       18 </v>
   <v type="int" >        4        3        8       17       18 </v>
   <v type="int" >        4        8        9       18       23 </v>
   <v type="int" >        8        8       18       22       23 </v>
   <v type="int" >        8        8       17       18       22 </v>
   <v type="int" >        8        9       11       12       23 </v>
   <v type="int" >        8        8        9       11       23 </v>
   <v type="int" >        4        8       11       22       23 </v>
   <v type="int" >        4       11       12       23       26 </v>
   <v type="int" >        8       11       23       25       26 </v>
   <v type="int" >        8       11       22       23       25 </v>
   <v type="int" >        8       12       12       14       26 </v>
   <v type="int" >        8       11       12       12       26 </v>
   <v type="int" >        4       11       12       25       26 </v>
   <v type="int" >        4       12       14       26       28 </v>
   <v type="int" >        8       12       26       26       28 </v>
   <v type="int" >        8       12       25       26       26 </v>
   <v type="int" >        8       13       14       14       28 </v>
   <v type="int" >        8       12       13       14       28 </v>
   <v type="int" >        4       12       13       26       28 </v>
   <v type="int" >        4       13       14       28       28 </v>
   <v type="int" >        4       13       27       28       28 </v>
   <v type="int" >        8       13       26       27       28 </v>
   <v type="int" >        4       12       12       14       28 </v>
   <v type="int" >        4       12       13       27       28 </v>
   <v type="int" >        4       12       12       26       28 </v>
   <v type="int" >        8       12       26       27       28 </v>
   <v type="int" >        4       11       12       26       26 </v>
   <v type="int" >        4        9       11       23       26 </v>
   <v type="int" >        4       11       25       26       26 </v>
   <v type="int" >        4        8       11       23       25 </v>
   <v type="int" >        4        4        8       18       23 </v>
   <v type="int" >        4        3        8       18       22 </v>
   <v type="int" >        8        5        9       10       19 </v>
   <v type="int" >        8        4        5        9       19 </v>
   <v type="int" >        4        4        9       18       19 </v>
   <v type="int" >        4        9       10       19       24 </v>
   <v type="int" >        8        9       19       23       24 </v>
   <v type="int" >        8        9       18       19       23 </v>
   <v type="int" >        8       10       12       13       24 </v>
   <v type="int" >        8        9       10       12       24 </v>
   <v type="int" >        4        9       12       23       24 </v>
   <v type="int" >        4       12       13       24       27 </v>
   <v type="int" >        8       12       24       26       27 </v>
   <v type="int" >        8       12       23       24       26 </v>
   <v type="int" >        4       13       14       14       27 </v>
   <v type="int" >        8       12       13       14       27 </v>
   <v type="int" >        4       12       14       26       27 </v>
   <v type="int" >        4       14       14       27       28 </v>
   <v type="int" >        8       14       27       28       28 </v>
   <v type="int" >        8       14       26       27       28 </v>
   <v type="int" >        4       14       14       14       28 </v>
   <v type="int" >        4       14       14       28       28 </v>
   <v type="int" >        4       13       14       27       28 </v>
   <v type="int" >        4       14       28       28       28 </v>
   <v type="int" >        4       12       14       27       28 </v>
   <v type="int" >        4       10       12       24       27 </v>
   <v type="int" >        4        9       12       24       26 </v>
   <v type="int" >        4        5        9       19       24 </v>
   <v type="int" >        4        4        9       19       23 </v>
   <v type="int" >        4        6       10       10       20 </v>
   <v type="int" >        8        5        6       10       20 </v>
   <v type="int" >        4        5       10       19       20 </v>
   <v type="int" >        4       10       10       20       24 </v>
   <v type="int" >        8       10       20       24       24 </v>
   <v type="int" >        8       10       19       20       24 </v>
   <v type="int" >        8       10       10       13       24 </v>
   <v type="int" >        4       10       13       24       24 </v>
   <v type="int" >        4       12       13       24       26 </v>
   <v type="int" >        8       13       24       26       27 </v>
   <v type="int" >        4       13       24       24       27 </v>
   <v type="int" >        8       12       13       14       26 </v>
   <v type="int" >        4       13       14       26       27 </v>
   <v type="int" >        4       12       14       26       26 </v>
   <v type="int" >        4       14       26       26       28 </v>
   <v type="int" >        4       13       14       26       28 </v>
   <v type="int" >        4       10       13       24       26 </v>
   <v type="int" >        4       10       13       24       27 </v>
   <v type="int" >        4        6       10       20       24 </v>
   <v type="int" >        4        5       10       20       24 </v>
   <v type="int" >        8        5        6       10       19 </v>
   <v type="int" >        4        6       10       19       20 </v>
   <v type="int" >        4        9       10       19       23 </v>
   <v type="int" >        8       10       19       23       24 </v>
   <v type="int" >        8        9       10       12       23 </v>
   <v type="int" >        4       10       12       23       24 </v>
   <v type="int" >        4       11       12       23       25 </v>
   <v type="int" >        8       12       23       25       26 </v>
   <v type="int" >        4       11       12       12       25 </v>
   <v type="int" >        4       12       12       25       26 </v>
   <v type="int" >        4        9       12       23       25 </v>
   <v type="int" >        4       10       12       23       26 </v>
   <v type="int" >        4        5       10       19       23 </v>
   <v type="int" >        4        6       10       19       24 </v>
   <v type="int" >        8        4        5        9       18 </v>
   <v type="int" >        4        5        9       18       19 </v>
   <v type="int" >        4        8        9       18       22 </v>
   <v type="int" >        8        9       18       22       23 </v>
   <v type="int" >        8        8        9       11       22 </v>
   <v type="int" >        4        9       11       22       23 </v>
   <v type="int" >        4        8       11       22       22 </v>
   <v type="int" >        4       11       22       22       25 </v>
   <v type="int" >        4        9       11       22       25 </v>
   <v type="int" >        4        4        9       18       22 </v>
   <v type="int" >        4        5        9       18       23 </v>
   <v type="int" >        8        3        4        8       17 </v>
   <v type="int" >        4        4        8       17       18 </v>
   <v type="int" >        4        7        8       17       21 </v>
   <v type="int" >        8        8       17       21       22 </v>
   <v type="int" >        4        7        8        8       21 </v>
   <v type="int" >        4        8        8       21       22 </v>
   <v type="int" >        4        3        8       17       21 </v>
   <v type="int" >        4        4        8       17       22 </v>
   <v type="int" >        8        2        3        7       16 </v>
   <v type="int" >        4        3        7       16       17 </v>
   <v type="int" >        4        2        7       16       16 </v>
   <v type="int" >        4        7       16       16       21 </v>
   <v type="int" >        4        3        7       16       21 </v>
   <v type="int" >        4        1        2        2       15 </v>
   <v type="int" >        4        2        2       15       16 </v>
   <v type="int" >       12       16       16       16       21 </v>
   <v type="int" >       12       15       16       16       16 </v>
   <v type="int" >        6       15       15       16       16 </v>
   <v type="int" >        6       16       16       21       21 </v>
   <v type="int" >       12       17       21       21       22 </v>
   <v type="int" >       12       16       17       21       21 </v>
   <v type="int" >       12       16       16       17       21 </v>
   <v type="int" >       12       17       21       22       22 </v>
   <v type="int" >       12       17       17       21       22 </v>
   <v type="int" >       12       16       17       17       21 </v>
   <v type="int" >       12       18       22       22       23 </v>
   <v type="int" >       12       17       18       22       22 </v>
   <v type="int" >       12       17       17       18       22 </v>
   <v type="int" >       12       18       22       23       23 </v>
   <v type="int" >       12       18       18       22       23 </v>
   <v type="int" >       12       17       18       18       22 </v>
   <v type="int" >       12       19       23       23       24 </v>
   <v type="int" >       12       18       19       23       23 </v>
   <v type="int" >       12       18       18       19       23 </v>
   <v type="int" >       12       19       23       24       24 </v>
   <v type="int" >       12       19       19       23       24 </v>
   <v type="int" >       12       18       19       19       23 </v>
   <v type="int" >       12       20       24       24       24 </v>
   <v type="int" >       12       19       20       24       24 </v>
   <v type="int" >       12       19       19       20       24 </v>
   <v type="int" >        6       20       20       24       24 </v>
   <v type="int" >       12       19       20       20       24 </v>
   <v type="int" >       12       22       22       22       25 </v>
   <v type="int" >       12       21       22       22       22 </v>
   <v type="int" >        6       21       21       22       22 </v>
   <v type="int" >        6       22       22       25       25 </v>
   <v type="int" >       12       23       25       25       26 </v>
   <v type="int" >       12       22       23       25       25 </v>
   <v type="int" >       12       22       22       23       25 </v>
   <v type="int" >       12       23       25       26       26 </v>
   <v type="int" >       12       23       23       25       26 </v>
   <v type="int" >       12       22       23       23       25 </v>
   <v type="int" >       12       24       26       26       27 </v>
   <v type="int" >       12       23       24       26       26 </v>
   <v type="int" >       12       23       23       24       26 </v>
   <v type="int" >       12       24       26       27       27 </v>
   <v type="int" >       12       24       24       26       27 </v>
   <v type="int" >       12       23       24       24       26 </v>
   <v type="int" >        6       24       24       27       27 </v>
   <v type="int" >       12       24       24       24       27 </v>
   <v type="int" >       12       26       26       26       28 </v>
   <v type="int" >       12       25       26       26       26 </v>
   <v type="int" >        6       25       25       26       26 </v>
   <v type="int" >        6       26       26       28       28 </v>
   <v type="int" >       12       27       28       28       28 </v>
   <v type="int" >       12       26       27       28       28 </v>
   <v type="int" >       12       26       26       27       28 </v>
   <v type="int" >        6       27       27       28       28 </v>
   <v type="int" >       12       26       27       27       28 </v>
   <v type="int" >        6       28       28       28       28 </v>
  </varray>
  <i name="volumeweight">      0.00055556 </i>
 </kpoints>
 <parameters>
  <separator name="general" >
   <i type="string" name="SYSTEM">unknown system</i>
   <i type="logical" name="LCOMPAT"> F  </i>
  </separator>
  <separator name="electronic" >
   <i type="string" name="PREC">accura</i>
   <i name="ENMAX">    650.00000000</i>
   <i name="ENAUG">    345.27800000</i>
   <i name="EDIFF">      0.00000100</i>
   <i type="int" name="IALGO">    53</i>
   <i type="int" name="IWAVPR">    10</i>
   <i type="int" name="NBANDS">    24</i>
   <i name="NELECT">     36.00000000</i>
   <i type="int" name="TURBO">     0</i>
   <i type="int" name="IRESTART">     0</i>
   <i type="int" name="NREBOOT">     0</i>
   <i type="int" name="NMIN">     0</i>
   <i name="EREF">      0.00000000</i>
   <separator name="electronic smearing" >
    <i type="int" name="ISMEAR">    -5</i>
    <i name="SIGMA">      0.01000000</i>
    <i name="KSPACING">      0.50000000</i>
    <i type="logical" name="KGAMMA"> T  </i>
   </separator>
   <separator name="electronic projectors" >
    <i type="logical" name="LREAL"> F  </i>
    <v name="ROPT">      0.00000000      0.00000000</v>
    <i type="int" name="LMAXPAW">  -100</i>
    <i type="int" name="LMAXMIX">     2</i>
    <i type="logical" name="NLSPLINE"> F  </i>
   </separator>
   <separator name="electronic startup" >
    <i type="int" name="ISTART">     0</i>
    <i type="int" name="ICHARG">     2</i>
    <i type="int" name="INIWAV">     1</i>
   </separator>
   <separator name="electronic spin" >
    <i type="int" name="ISPIN">     1</i>
    <i type="logical" name="LNONCOLLINEAR"> F  </i>
    <v name="MAGMOM">      1.00000000      1.00000000      1.00000000      1.00000000      1.00000000      1.00000000</v>
    <i name="NUPDOWN">     -1.00000000</i>
    <i type="logical" name="LSORBIT"> F  </i>
    <v name="SAXIS">      0.00000000      0.00000000      1.00000000</v>
    <i type="logical" name="LSPIRAL"> F  </i>
    <v name="QSPIRAL">      0.00000000      0.00000000      0.00000000</v>
    <i type="logical" name="LZEROZ"> F  </i>
   </separator>
   <separator name="electronic exchange-correlation" >
    <i type="logical" name="LASPH"> F  </i>
    <i type="logical" name="LMETAGGA"> F  </i>
   </separator>
   <separator name="electronic convergence" >
    <i type="int" name="NELM">   300</i>
    <i type="int" name="NELMDL">     0</i>
    <i type="int" name="NELMIN">     4</i>
    <i name="ENINI">    650.00000000</i>
    <separator name="electronic convergence detail" >
     <i type="logical" name="LDIAG"> T  </i>
     <i type="logical" name="LSUBROT"> F  </i>
     <i name="WEIMIN">      0.00000000</i>
     <i name="EBREAK">      0.00000001</i>
     <i name="DEPER">      0.30000000</i>
     <i type="int" name="NRMM">     4</i>
     <i name="TIME">      0.40000000</i>
    </separator>
   </separator>
   <separator name="electronic mixer" >
    <i name="AMIX">      0.40000000</i>
    <i name="BMIX">      1.00000000</i>
    <i name="AMIN">      0.10000000</i>
    <i name="AMIX_MAG">      1.60000000</i>
    <i name="BMIX_MAG">      1.00000000</i>
    <separator name="electronic mixer details" >
     <i type="int" name="IMIX">     4</i>
     <i type="logical" name="MIXFIRST"> F  </i>
     <i type="int" name="MAXMIX">   -45</i>
     <i name="WC">    100.00000000</i>
     <i type="int" name="INIMIX">     1</i>
     <i type="int" name="MIXPRE">     1</i>
     <i type="int" name="MREMOVE">     5</i>
    </separator>
   </separator>
   <separator name="electronic dipolcorrection" >
    <i type="logical" name="LDIPOL"> F  </i>
    <i type="logical" name="LMONO"> F  </i>
    <i type="int" name="IDIPOL">     0</i>
    <i name="EPSILON">      1.00000000</i>
    <v name="DIPOL">   -100.00000000   -100.00000000   -100.00000000</v>
    <i name="EFIELD">      0.00000000</i>
   </separator>
  </separator>
  <separator name="grids" >
   <i type="int" name="NGX">    28</i>
   <i type="int" name="NGY">    28</i>
   <i type="int" name="NGZ">   126</i>
   <i type="int" name="NGXF">    56</i>
   <i type="int" name="NGYF">    56</i>
   <i type="int" name="NGZF">   252</i>
   <i type="logical" name="ADDGRID"> F  </i>
  </separator>
  <separator name="ionic" >
   <i type="int" name="NSW">     0</i>
   <i type="int" name="IBRION">    -1</i>
   <i type="int" name="MDALGO">     0</i>
   <i type="int" name="ISIF">     0</i>
   <i name="PSTRESS">      0.00000000</i>
   <i name="EDIFFG">      0.00001000</i>
   <i type="int" name="NFREE">     0</i>
   <i name="POTIM">      0.50000000</i>
   <i name="SMASS">     -3.00000000</i>
   <i name="SCALEE">      1.00000000</i>
  </separator>
  <separator name="ionic md" >
   <i name="TEBEG">      0.00010000</i>
   <i name="TEEND">      0.00010000</i>
   <i type="int" name="NBLOCK">     1</i>
   <i type="int" name="KBLOCK">     1</i>
   <i type="int" name="NPACO">   256</i>
   <i name="APACO">     16.00000000</i>
  </separator>
  <separator name="symmetry" >
   <i type="int" name="ISYM">     3</i>
   <i name="SYMPREC">      0.00010000</i>
  </separator>
  <separator name="dos" >
   <i type="int" name="LORBIT">    11</i>
   <v name="RWIGS">     -1.00000000     -1.00000000</v>
   <i type="int" name="NEDOS">  2801</i>
   <i name="EMIN">     -3.00000000</i>
   <i name="EMAX">      4.00000000</i>
   <i name="EFERMI">      0.00000000</i>
  </separator>
  <separator name="writing" >
   <i type="int" name="NWRITE">     2</i>
   <i type="logical" name="LWAVE"> F  </i>
   <i type="logical" name="LDOWNSAMPLE"> F  </i>
   <i type="logical" name="LCHARG"> T  </i>
   <i type="logical" name="LPARD"> F  </i>
   <i type="logical" name="LVTOT"> F  </i>
   <i type="logical" name="LVHAR"> F  </i>
   <i type="logical" name="LELF"> F  </i>
   <i type="logical" name="LOPTICS"> F  </i>
   <v name="STM">      0.00000000      0.00000000      0.00000000      0.00000000      0.00000000      0.00000000      0.00000000</v>
  </separator>
  <separator name="performance" >
   <i type="int" name="NPAR">     4</i>
   <i type="int" name="NSIM">     4</i>
   <i type="int" name="NBLK">    -1</i>
   <i type="logical" name="LPLANE"> T  </i>
   <i type="logical" name="LSCALAPACK"> T  </i>
   <i type="logical" name="LSCAAWARE"> F  </i>
   <i type="logical" name="LSCALU"> F  </i>
   <i type="logical" name="LASYNC"> F  </i>
   <i type="logical" name="LORBITALREAL"> F  </i>
  </separator>
  <separator name="miscellaneous" >
   <i type="int" name="IDIOT">     3</i>
   <i type="int" name="ISPECIAL">     0</i>
   <i type="logical" name="LMUSIC"> F  </i>
   <v name="POMASS">     95.94000000     32.06600000</v>
   <v name="DARWINR">      0.00000000      0.00000000</v>
   <v name="DARWINV">      1.00000000      1.00000000</v>
   <i type="logical" name="LCORR"> T  </i>
  </separator>
  <i type="logical" name="GGA_COMPAT"> T  </i>
  <i type="logical" name="LBERRY"> F  </i>
  <i type="int" name="ICORELEVEL">     0</i>
  <i type="logical" name="LDAU"> F  </i>
  <i type="int" name="I_CONSTRAINED_M">     0</i>
  <separator name="electronic exchange-correlation" >
   <i type="string" name="GGA">--</i>
   <i type="int" name="VOSKOWN">     0</i>
   <i type="logical" name="LHFCALC"> T  </i>
   <i type="string" name="PRECFOCK">normal</i>
   <i type="logical" name="LSYMGRAD"> F  </i>
   <i type="logical" name="LHFONE"> F  </i>
   <i type="logical" name="LRHFCALC"> F  </i>
   <i type="logical" name="LTHOMAS"> F  </i>
   <i type="logical" name="LMODELHF"> F  </i>
   <i name="ENCUT4O">     -1.00000000</i>
   <i type="int" name="EXXOEP">     0</i>
   <i type="int" name="FOURORBIT">     0</i>
   <i name="AEXX">      0.25000000</i>
   <i name="HFALPHA">     -1.00000000</i>
   <i name="MCALPHA">      0.00000000</i>
   <i name="ALDAX">      0.75000000</i>
   <i name="AGGAX">      0.75000000</i>
   <i name="ALDAC">      1.00000000</i>
   <i name="AGGAC">      1.00000000</i>
   <i type="int" name="NKREDX">     1</i>
   <i type="int" name="NKREDY">     1</i>
   <i type="int" name="NKREDZ">     1</i>
   <i type="logical" name="SHIFTRED"> F  </i>
   <i type="logical" name="ODDONLY"> F  </i>
   <i type="logical" name="EVENONLY"> F  </i>
   <i type="int" name="LMAXFOCK">     4</i>
   <i type="int" name="NMAXFOCKAE">     1</i>
   <i type="logical" name="LFOCKAEDFT"> F  </i>
   <i name="HFSCREEN">      0.20000000</i>
   <i name="HFSCREENC">      0.20000000</i>
   <i type="int" name="NBANDSGWLOW">     1</i>
  </separator>
  <separator name="vdW DFT" >
   <i type="logical" name="LUSE_VDW"> F  </i>
   <i name="Zab_VDW">     -0.84910000</i>
   <i name="PARAM1">      0.12340000</i>
   <i name="PARAM2">      1.00000000</i>
   <i name="PARAM3">      0.00000000</i>
  </separator>
  <separator name="model GW" >
   <i type="int" name="MODEL_GW">     0</i>
   <i name="MODEL_EPS0">     13.04953416</i>
   <i name="MODEL_ALPHA">      1.00000000</i>
  </separator>
  <separator name="linear response parameters" >
   <i type="logical" name="LEPSILON"> F  </i>
   <i type="logical" name="LRPA"> F  </i>
   <i type="logical" name="LNABLA"> F  </i>
   <i type="logical" name="LVEL"> F  </i>
   <i type="int" name="KINTER">     0</i>
   <i name="CSHIFT">      0.10000000</i>
   <i name="OMEGAMAX">     -1.00000000</i>
   <i name="DEG_THRESHOLD">      0.00200000</i>
   <i name="RTIME">     -0.10000000</i>
   <i name="WPLASMAI">      0.00000000</i>
   <v name="DFIELD">      0.00000000      0.00000000      0.00000000</v>
   <v name="WPLASMA">      0.00000000      0.00000000      0.00000000      0.00000000      0.00000000      0.00000000      0.00000000      0.00000000      0.00000000</v>
  </separator>
  <separator name="orbital magnetization" >
   <i type="logical" name="NUCIND"> F  </i>
   <v name="MAGPOS">      0.00000000      0.00000000      0.00000000</v>
   <i type="logical" name="LNICSALL"> T  </i>
   <i type="logical" name="ORBITALMAG"> F  </i>
   <i type="logical" name="LMAGBLOCH"> F  </i>
   <i type="logical" name="LCHIMAG"> F  </i>
   <i type="logical" name="LGAUGE"> T  </i>
   <i type="int" name="MAGATOM">     0</i>
   <v name="MAGDIPOL">      0.00000000      0.00000000      0.00000000</v>
   <v name="AVECCONST">      0.00000000      0.00000000      0.00000000</v>
  </separator>
  <separator name="response functions" >
   <i type="logical" name="LADDER"> F  </i>
   <i type="logical" name="LRPAFORCE"> F  </i>
   <i type="logical" name="LFXC"> F  </i>
   <i type="logical" name="LHARTREE"> T  </i>
   <i type="int" name="IBSE">     0</i>
   <v type="int" name="KPOINT">    -1     0     0     0</v>
   <i type="logical" name="LTCTE"> F  </i>
   <i type="logical" name="LTETE"> F  </i>
   <i type="logical" name="LTRIPLET"> F  </i>
   <i type="logical" name="LFXCEPS"> F  </i>
   <i type="logical" name="LFXHEG"> F  </i>
   <i type="int" name="NATURALO">     2</i>
   <i type="logical" name="L2ORDER"> F  </i>
   <i type="logical" name="LMP2LT"> F  </i>
   <i type="logical" name="LUSEW"> F  </i>
   <i name="ENCUTGW">     -2.00000000</i>
   <i name="ENCUTGWSOFT">     -2.00000000</i>
   <i name="ENCUTLF">     -1.00000000</i>
   <i type="int" name="LMAXMP2">    -1</i>
   <i name="SCISSOR">      0.00000000</i>
   <i type="int" name="NOMEGA">     0</i>
   <i type="int" name="NOMEGAR">     0</i>
   <i type="int" name="NBANDSGW">    -1</i>
   <i type="int" name="NBANDSO">    -1</i>
   <i type="int" name="NBANDSV">    -1</i>
   <i type="int" name="NELM">   300</i>
   <i type="int" name="NELMHF">     1</i>
   <i type="int" name="DIM">     3</i>
   <i type="int" name="ANTIRES">     0</i>
   <i name="OMEGAMAX">    -30.00000000</i>
   <i name="OMEGAMIN">    -30.00000000</i>
   <i name="OMEGATL">   -200.00000000</i>
   <i type="int" name="OMEGAGRID">   140</i>
   <i name="CSHIFT">     -0.10000000</i>
   <i type="logical" name="SELFENERGY"> F  </i>
   <i type="logical" name="LSPECTRAL"> F  </i>
   <i type="logical" name="LSPECTRALGW"> F  </i>
   <i type="logical" name="LSINGLES"> F  </i>
   <i type="logical" name="LFERMIGW"> F  </i>
   <i type="logical" name="ODDONLYGW"> F  </i>
   <i type="logical" name="EVENONLYGW"> F  </i>
   <i type="int" name="NKREDLFX">     1</i>
   <i type="int" name="NKREDLFY">     1</i>
   <i type="int" name="NKREDLFZ">     1</i>
   <i type="int" name="MAXMEM">  2800</i>
   <i type="int" name="TELESCOPE">     0</i>
   <i type="int" name="TAUPAR">     1</i>
   <i type="int" name="OMEGAPAR">    -1</i>
   <i name="LAMBDA">      1.00000000</i>
  </separator>
  <separator name="External order field" >
   <i name="OFIELD_KAPPA">      0.00000000</i>
   <v name="OFIELD_K">      0.00000000      0.00000000      0.00000000</v>
   <i name="OFIELD_Q6_NEAR">      0.00000000</i>
   <i name="OFIELD_Q6_FAR">      0.00000000</i>
   <i name="OFIELD_A">      0.00000000</i>
  </separator>
 </parameters>
 <atominfo>
  <atoms>       6 </atoms>
  <types>       2 </types>
  <array name="atoms" >
   <dimension dim="1">ion</dimension>
   <field type="string">element</field>
   <field type="int">atomtype</field>
   <set>
    <rc><c>Mo</c><c>   1</c></rc>
    <rc><c>Mo</c><c>   1</c></rc>
    <rc><c>S </c><c>   2</c></rc>
    <rc><c>S </c><c>   2</c></rc>
    <rc><c>S </c><c>   2</c></rc>
    <rc><c>S </c><c>   2</c></rc>
   </set>
  </array>
  <array name="atomtypes" >
   <dimension dim="1">type</dimension>
   <field type="int">atomspertype</field>
   <field type="string">element</field>
   <field>mass</field>
   <field>valence</field>
   <field type="string">pseudopotential</field>
   <set>
    <rc><c>   2</c><c>Mo</c><c>     95.94000000</c><c>      6.00000000</c><c> PAW_PBE Mo 08Apr2002                   </c></rc>
    <rc><c>   4</c><c>S </c><c>     32.06600000</c><c>      6.00000000</c><c>  PAW_PBE S 17Jan2003                   </c></rc>
   </set>
  </array>
 </atominfo>
 <structure name="initialpos" >
  <crystal>
   <varray name="basis" >
    <v>       3.18347651       0.00000000       0.00000000 </v>
    <v>      -1.59173825       2.75697153       0.00000000 </v>
    <v>       0.00000000       0.00000000      14.86829191 </v>
   </varray>
   <i name="volume">    130.49534161 </i>
   <varray name="rec_basis" >
    <v>       0.31412200       0.18135842       0.00000000 </v>
    <v>       0.00000000       0.36271684       0.00000000 </v>
    <v>       0.00000000       0.00000000       0.06725722 </v>
   </varray>
  </crystal>
  <varray name="positions" >
   <v>       0.33333300       0.66666700       0.25000000 </v>
   <v>       0.66666700       0.33333300       0.75000000 </v>
   <v>       0.33333300       0.66666700       0.85515530 </v>
   <v>       0.66666700       0.33333300       0.14484470 </v>
   <v>       0.66666600       0.33333300       0.35515530 </v>
   <v>       0.33333400       0.66666700       0.64484470 </v>
  </varray>
 </structure>
 <calculation>
  <scstep>
   <time name="total">    5.54    5.56</time>
   <energy>
    <i name="alphaZ">     90.88015665 </i>
    <i name="ewald">  -1147.47487708 </i>
    <i name="hartreedc">   -535.91209460 </i>
    <i name="XCdc">    -60.30293003 </i>
    <i name="pawpsdc">    797.20416991 </i>
    <i name="pawaedc">   -672.28979984 </i>
    <i name="eentropy">      0.00000000 </i>
    <i name="bandstr">    450.99813176 </i>
    <i name="atom">   1523.27991600 </i>
    <i name="e_fr_energy">    446.38267279 </i>
    <i name="e_wo_entrp">    446.38267279 </i>
    <i name="e_0_energy">    446.38267279 </i>
   </energy>
  </scstep>
  <scstep>
   <time name="total">    3.28    3.30</time>
   <energy>
    <i name="e_fr_energy">    136.58568050 </i>
    <i name="e_wo_entrp">    136.58568050 </i>
    <i name="e_0_energy">    136.58568050 </i>
   </energy>
  </scstep>
  <scstep>
   <time name="total">    2.56    2.57</time>
   <energy>
    <i name="e_fr_energy">     54.01333714 </i>
    <i name="e_wo_entrp">     54.01333714 </i>
    <i name="e_0_energy">     54.01333714 </i>
   </energy>
  </scstep>
  <scstep>
   <time name="total">    2.24    2.25</time>
   <energy>
    <i name="e_fr_energy">     24.95584864 </i>
    <i name="e_wo_entrp">     24.95584864 </i>
    <i name="e_0_energy">     24.95584864 </i>
   </energy>
  </scstep>
  <scstep>
   <time name="total">    2.76    2.76</time>
   <energy>
    <i name="e_fr_energy">     12.22633749 </i>
    <i name="e_wo_entrp">     12.22633749 </i>
    <i name="e_0_energy">     12.22633749 </i>
   </energy>
  </scstep>
  <scstep>
   <time name="total">  652.65  652.56</time>
   <energy>
    <i name="e_fr_energy">    -40.47375773 </i>
    <i name="e_wo_entrp">    -40.47375773 </i>
    <i name="e_0_energy">    -40.47375773 </i>
   </energy>
  </scstep>
  <scstep>
   <time name="total">  661.07  660.95</time>
   <energy>
    <i name="e_fr_energy">    -48.43428154 </i>
    <i name="e_wo_entrp">    -48.43428154 </i>
    <i name="e_0_energy">    -48.43428154 </i>
   </energy>
  </scstep>
  <scstep>
   <time name="total">  651.53  651.41</time>
   <energy>
    <i name="e_fr_energy">    -52.04235597 </i>
    <i name="e_wo_entrp">    -52.04235597 </i>
    <i name="e_0_energy">    -52.04235597 </i>
   </energy>
  </scstep>
  <scstep>
   <time name="total">  656.59  656.45</time>
   <energy>
    <i name="e_fr_energy">    -53.81408061 </i>
    <i name="e_wo_entrp">    -53.81408061 </i>
    <i name="e_0_energy">    -53.81408061 </i>
   </energy>
  </scstep>
  <scstep>
   <time name="total">  666.35  666.22</time>
   <energy>
    <i name="e_fr_energy">    -54.97776845 </i>
    <i name="e_wo_entrp">    -54.97776845 </i>
    <i name="e_0_energy">    -54.97776845 </i>
   </energy>
  </scstep>
  <scstep>
   <time name="total">  651.42  651.28</time>
   <energy>
    <i name="e_fr_energy">    -55.72293945 </i>
    <i name="e_wo_entrp">    -55.72293945 </i>
    <i name="e_0_energy">    -55.72293945 </i>
   </energy>
  </scstep>
  <scstep>
   <time name="total">  662.32  662.19</time>
   <energy>
    <i name="e_fr_energy">    -56.22214039 </i>
    <i name="e_wo_entrp">    -56.22214039 </i>
    <i name="e_0_energy">    -56.22214039 </i>
   </energy>
  </scstep>
  <scstep>
   <time name="total">  647.68  647.55</time>
   <energy>
    <i name="e_fr_energy">    -56.52953999 </i>
    <i name="e_wo_entrp">    -56.52953999 </i>
    <i name="e_0_energy">    -56.52953999 </i>
   </energy>
  </scstep>
  <scstep>
   <time name="total">  632.36  632.25</time>
   <energy>
    <i name="e_fr_energy">    -56.71790825 </i>
    <i name="e_wo_entrp">    -56.71790825 </i>
    <i name="e_0_energy">    -56.71790825 </i>
   </energy>
  </scstep>
  <scstep>
   <time name="total">  631.52  631.47</time>
   <energy>
    <i name="e_fr_energy">    -56.83144723 </i>
    <i name="e_wo_entrp">    -56.83144723 </i>
    <i name="e_0_energy">    -56.83144723 </i>
   </energy>
  </scstep>
  <scstep>
   <time name="total">  624.23  624.16</time>
   <energy>
    <i name="e_fr_energy">    -56.89862881 </i>
    <i name="e_wo_entrp">    -56.89862881 </i>
    <i name="e_0_energy">    -56.89862881 </i>
   </energy>
  </scstep>
  <scstep>
   <time name="total">  642.48  642.40</time>
   <energy>
    <i name="e_fr_energy">    -56.93684435 </i>
    <i name="e_wo_entrp">    -56.93684435 </i>
    <i name="e_0_energy">    -56.93684435 </i>
   </energy>
  </scstep>
  <scstep>
   <time name="total">  652.04  651.94</time>
   <energy>
    <i name="e_fr_energy">    -56.95795248 </i>
    <i name="e_wo_entrp">    -56.95795248 </i>
    <i name="e_0_energy">    -56.95795248 </i>
   </energy>
  </scstep>
  <scstep>
   <time name="total">  638.17  638.05</time>
   <energy>
    <i name="e_fr_energy">    -56.96931975 </i>
    <i name="e_wo_entrp">    -56.96931975 </i>
    <i name="e_0_energy">    -56.96931975 </i>
   </energy>
  </scstep>
  <scstep>
   <time name="total">  652.49  652.36</time>
   <energy>
    <i name="e_fr_energy">    -56.97522128 </i>
    <i name="e_wo_entrp">    -56.97522128 </i>
    <i name="e_0_energy">    -56.97522128 </i>
   </energy>
  </scstep>
  <scstep>
   <time name="total">  640.16  640.03</time>
   <energy>
    <i name="e_fr_energy">    -56.97827487 </i>
    <i name="e_wo_entrp">    -56.97827487 </i>
    <i name="e_0_energy">    -56.97827487 </i>
   </energy>
  </scstep>
  <scstep>
   <time name="total">  633.23  633.09</time>
   <energy>
    <i name="e_fr_energy">    -56.97987915 </i>
    <i name="e_wo_entrp">    -56.97987915 </i>
    <i name="e_0_energy">    -56.97987915 </i>
   </energy>
  </scstep>
  <scstep>
   <time name="total">  636.89  636.75</time>
   <energy>
    <i name="e_fr_energy">    -56.98075119 </i>
    <i name="e_wo_entrp">    -56.98075119 </i>
    <i name="e_0_energy">    -56.98075119 </i>
   </energy>
  </scstep>
  <scstep>
   <time name="total">  625.01  624.93</time>
   <energy>
    <i name="e_fr_energy">    -56.98125960 </i>
    <i name="e_wo_entrp">    -56.98125960 </i>
    <i name="e_0_energy">    -56.98125960 </i>
   </energy>
  </scstep>
  <scstep>
   <time name="total">  635.21  635.09</time>
   <energy>
    <i name="e_fr_energy">    -56.98158257 </i>
    <i name="e_wo_entrp">    -56.98158257 </i>
    <i name="e_0_energy">    -56.98158257 </i>
   </energy>
  </scstep>
  <scstep>
   <time name="total">  670.02  669.89</time>
   <energy>
    <i name="e_fr_energy">    -56.98180570 </i>
    <i name="e_wo_entrp">    -56.98180570 </i>
    <i name="e_0_energy">    -56.98180570 </i>
   </energy>
  </scstep>
  <scstep>
   <time name="total">  662.39  662.32</time>
   <energy>
    <i name="e_fr_energy">    -56.98197178 </i>
    <i name="e_wo_entrp">    -56.98197178 </i>
    <i name="e_0_energy">    -56.98197178 </i>
   </energy>
  </scstep>
  <scstep>
   <time name="total">  670.80  670.69</time>
   <energy>
    <i name="e_fr_energy">    -56.98210201 </i>
    <i name="e_wo_entrp">    -56.98210201 </i>
    <i name="e_0_energy">    -56.98210201 </i>
   </energy>
  </scstep>
  <scstep>
   <time name="total">  669.29  669.16</time>
   <energy>
    <i name="e_fr_energy">    -56.98220723 </i>
    <i name="e_wo_entrp">    -56.98220723 </i>
    <i name="e_0_energy">    -56.98220723 </i>
   </energy>
  </scstep>
  <scstep>
   <time name="total">  661.94  661.87</time>
   <energy>
    <i name="e_fr_energy">    -56.98229225 </i>
    <i name="e_wo_entrp">    -56.98229225 </i>
    <i name="e_0_energy">    -56.98229225 </i>
   </energy>
  </scstep>
  <scstep>
   <time name="total">  669.28  669.23</time>
   <energy>
    <i name="e_fr_energy">    -56.98236124 </i>
    <i name="e_wo_entrp">    -56.98236124 </i>
    <i name="e_0_energy">    -56.98236124 </i>
   </energy>
  </scstep>
  <scstep>
   <time name="total">  668.64  668.55</time>
   <energy>
    <i name="e_fr_energy">    -56.98241741 </i>
    <i name="e_wo_entrp">    -56.98241741 </i>
    <i name="e_0_energy">    -56.98241741 </i>
   </energy>
  </scstep>
  <scstep>
   <time name="total">  656.42  656.34</time>
   <energy>
    <i name="e_fr_energy">    -56.98246223 </i>
    <i name="e_wo_entrp">    -56.98246223 </i>
    <i name="e_0_energy">    -56.98246223 </i>
   </energy>
  </scstep>
  <scstep>
   <time name="total">  645.74  645.65</time>
   <energy>
    <i name="e_fr_energy">    -56.98249853 </i>
    <i name="e_wo_entrp">    -56.98249853 </i>
    <i name="e_0_energy">    -56.98249853 </i>
   </energy>
  </scstep>
  <scstep>
   <time name="total">  651.96  651.88</time>
   <energy>
    <i name="e_fr_energy">    -56.98252695 </i>
    <i name="e_wo_entrp">    -56.98252695 </i>
    <i name="e_0_energy">    -56.98252695 </i>
   </energy>
  </scstep>
  <scstep>
   <time name="total">  663.37  663.29</time>
   <energy>
    <i name="e_fr_energy">    -56.98254915 </i>
    <i name="e_wo_entrp">    -56.98254915 </i>
    <i name="e_0_energy">    -56.98254915 </i>
   </energy>
  </scstep>
  <scstep>
   <time name="total">  656.22  656.13</time>
   <energy>
    <i name="e_fr_energy">    -56.98256462 </i>
    <i name="e_wo_entrp">    -56.98256462 </i>
    <i name="e_0_energy">    -56.98256462 </i>
   </energy>
  </scstep>
  <scstep>
   <time name="total">  669.26  669.18</time>
   <energy>
    <i name="e_fr_energy">    -56.98257399 </i>
    <i name="e_wo_entrp">    -56.98257399 </i>
    <i name="e_0_energy">    -56.98257399 </i>
   </energy>
  </scstep>
  <scstep>
   <time name="total">  670.52  670.43</time>
   <energy>
    <i name="e_fr_energy">    -56.98257205 </i>
    <i name="e_wo_entrp">    -56.98257205 </i>
    <i name="e_0_energy">    -56.98257205 </i>
   </energy>
  </scstep>
  <scstep>
   <time name="total">  667.71  667.62</time>
   <energy>
    <i name="e_fr_energy">    -56.98255166 </i>
    <i name="e_wo_entrp">    -56.98255166 </i>
    <i name="e_0_energy">    -56.98255166 </i>
   </energy>
  </scstep>
  <scstep>
   <time name="total">  666.55  666.47</time>
   <energy>
    <i name="e_fr_energy">    -56.98251512 </i>
    <i name="e_wo_entrp">    -56.98251512 </i>
    <i name="e_0_energy">    -56.98251512 </i>
   </energy>
  </scstep>
  <scstep>
   <time name="total">  665.35  665.23</time>
   <energy>
    <i name="e_fr_energy">    -56.98247482 </i>
    <i name="e_wo_entrp">    -56.98247482 </i>
    <i name="e_0_energy">    -56.98247482 </i>
   </energy>
  </scstep>
  <scstep>
   <time name="total">  648.25  648.12</time>
   <energy>
    <i name="e_fr_energy">    -56.98244960 </i>
    <i name="e_wo_entrp">    -56.98244960 </i>
    <i name="e_0_energy">    -56.98244960 </i>
   </energy>
  </scstep>
  <scstep>
   <time name="total">  664.98  664.85</time>
   <energy>
    <i name="e_fr_energy">    -56.98243854 </i>
    <i name="e_wo_entrp">    -56.98243854 </i>
    <i name="e_0_energy">    -56.98243854 </i>
   </energy>
  </scstep>
  <scstep>
   <time name="total">  660.87  660.73</time>
   <energy>
    <i name="e_fr_energy">    -56.98242931 </i>
    <i name="e_wo_entrp">    -56.98242931 </i>
    <i name="e_0_energy">    -56.98242931 </i>
   </energy>
  </scstep>
  <scstep>
   <time name="total">  646.65  646.57</time>
   <energy>
    <i name="e_fr_energy">    -56.98245471 </i>
    <i name="e_wo_entrp">    -56.98245471 </i>
    <i name="e_0_energy">    -56.98245471 </i>
   </energy>
  </scstep>
  <scstep>
   <time name="total">  644.70  644.63</time>
   <energy>
    <i name="e_fr_energy">    -56.98246385 </i>
    <i name="e_wo_entrp">    -56.98246385 </i>
    <i name="e_0_energy">    -56.98246385 </i>
   </energy>
  </scstep>
  <scstep>
   <time name="total">  654.85  654.78</time>
   <energy>
    <i name="e_fr_energy">    -56.98249831 </i>
    <i name="e_wo_entrp">    -56.98249831 </i>
    <i name="e_0_energy">    -56.98249831 </i>
   </energy>
  </scstep>
  <scstep>
   <time name="total">  655.22  655.14</time>
   <energy>
    <i name="e_fr_energy">    -56.98250092 </i>
    <i name="e_wo_entrp">    -56.98250092 </i>
    <i name="e_0_energy">    -56.98250092 </i>
   </energy>
  </scstep>
  <scstep>
   <time name="total">  653.03  652.89</time>
   <energy>
    <i name="e_fr_energy">    -56.98254461 </i>
    <i name="e_wo_entrp">    -56.98254461 </i>
    <i name="e_0_energy">    -56.98254461 </i>
   </energy>
  </scstep>
  <scstep>
   <time name="total">  670.67  670.54</time>
   <energy>
    <i name="e_fr_energy">    -56.98256325 </i>
    <i name="e_wo_entrp">    -56.98256325 </i>
    <i name="e_0_energy">    -56.98256325 </i>
   </energy>
  </scstep>
  <scstep>
   <time name="total">  670.75  670.61</time>
   <energy>
    <i name="e_fr_energy">    -56.98260171 </i>
    <i name="e_wo_entrp">    -56.98260171 </i>
    <i name="e_0_energy">    -56.98260171 </i>
   </energy>
  </scstep>
  <scstep>
   <time name="total">  651.82  651.68</time>
   <energy>
    <i name="e_fr_energy">    -56.98261877 </i>
    <i name="e_wo_entrp">    -56.98261877 </i>
    <i name="e_0_energy">    -56.98261877 </i>
   </energy>
  </scstep>
  <scstep>
   <time name="total">  644.99  644.87</time>
   <energy>
    <i name="e_fr_energy">    -56.98264192 </i>
    <i name="e_wo_entrp">    -56.98264192 </i>
    <i name="e_0_energy">    -56.98264192 </i>
   </energy>
  </scstep>
  <scstep>
   <time name="total">  658.84  658.71</time>
   <energy>
    <i name="e_fr_energy">    -56.98265204 </i>
    <i name="e_wo_entrp">    -56.98265204 </i>
    <i name="e_0_energy">    -56.98265204 </i>
   </energy>
  </scstep>
  <scstep>
   <time name="total">  655.30  655.18</time>
   <energy>
    <i name="e_fr_energy">    -56.98266227 </i>
    <i name="e_wo_entrp">    -56.98266227 </i>
    <i name="e_0_energy">    -56.98266227 </i>
   </energy>
  </scstep>
  <scstep>
   <time name="total">  667.48  667.34</time>
   <energy>
    <i name="e_fr_energy">    -56.98266646 </i>
    <i name="e_wo_entrp">    -56.98266646 </i>
    <i name="e_0_energy">    -56.98266646 </i>
   </energy>
  </scstep>
  <scstep>
   <time name="total">  663.21  663.07</time>
   <energy>
    <i name="e_fr_energy">    -56.98267005 </i>
    <i name="e_wo_entrp">    -56.98267005 </i>
    <i name="e_0_energy">    -56.98267005 </i>
   </energy>
  </scstep>
  <scstep>
   <time name="total">  652.40  652.29</time>
   <energy>
    <i name="e_fr_energy">    -56.98267160 </i>
    <i name="e_wo_entrp">    -56.98267160 </i>
    <i name="e_0_energy">    -56.98267160 </i>
   </energy>
  </scstep>
  <scstep>
