unknown system                          
   1.00000000000000     
     3.190316    0.000000    0.000000
    -1.595158    2.762894    0.000000
     0.000000    0.000000   14.879004
   Mo   S 
     2     4
Direct
  0.333333  0.666667  0.250000
  0.666667  0.333333  0.750000
  0.333333  0.666667  0.855174
  0.666667  0.333333  0.144826
  0.666666  0.333333  0.355174
  0.333334  0.666667  0.644826
 
   32   32  160
 0.39432     0.39847     0.41083     0.43114     0.45898     0.49377     0.53473     0.58088     0.63094     0.68328    
 0.73592     0.78655     0.83266     0.87172     0.90144     0.92002     0.92634     0.92000     0.90139     0.87165    
 0.83257     0.78646     0.73582     0.68319     0.63086     0.58081     0.53467     0.49372     0.45895     0.43112    
 0.41082     0.39846     0.39847     0.39847     0.40673     0.42307     0.44716     0.47852     0.51650     0.56025    
 0.60863     0.66017     0.71307     0.76515     0.81398     0.85701     0.89181     0.91628     0.92889     0.92886    
 0.91623     0.89178     0.85700     0.81395     0.76508     0.71295     0.66004     0.60850     0.56016     0.51646    
 0.47850     0.44715     0.42305     0.40672     0.41083     0.40673     0.41083     0.42308     0.44323     0.47090    
 0.50558     0.54659     0.59295     0.64337     0.69621     0.74943     0.80067     0.84736     0.88698     0.91720    
 0.93612     0.94254     0.93607     0.91714     0.88695     0.84734     0.80060     0.74934     0.69610     0.64325    
 0.59285     0.54653     0.50557     0.47088     0.44320     0.42306     0.43113     0.42307     0.42306     0.43114    
 0.44719     0.47093     0.50198     0.53982     0.58368     0.63246     0.68472     0.73860     0.79184     0.84185    
 0.88599     0.92175     0.94696     0.95998     0.95995     0.94690     0.92169     0.88591     0.84173     0.79172    
 0.73853     0.68467     0.63240     0.58362     0.53978     0.50194     0.47087     0.44714     0.45895     0.44716    
 0.44320     0.44714     0.45897     0.47854     0.50562     0.53984     0.58065     0.62715     0.67810     0.73188    
 0.78642     0.83918     0.88741     0.92841     0.95975     0.97942     0.98612     0.97940     0.95972     0.92835    
 0.88728     0.83903     0.78633     0.73188     0.67809     0.62710     0.58060     0.53980     0.50555     0.47847    
 0.49369     0.47851     0.47090     0.47087     0.47849     0.49373     0.51649     0.54660     0.58371     0.62719    
 0.67601     0.72874     0.78357     0.83816     0.88974     0.93544     0.97256     0.99877      1.0123      1.0123    
 0.99878     0.97258     0.93541     0.88963     0.83806     0.78354     0.72872     0.67593     0.62710     0.58366    
 0.54656     0.51643     0.53463     0.51646     0.50560     0.50197     0.50557     0.51646     0.53468     0.56018    
 0.59290     0.63249     0.67818     0.72880     0.78274     0.83792     0.89172     0.94119     0.98344      1.0158    
  1.0362      1.0431      1.0361      1.0158     0.98349     0.94118     0.89164     0.83786     0.78270     0.72870    
 0.67805     0.63242     0.59290     0.56017     0.58077     0.56015     0.54658     0.53984     0.53982     0.54657    
 0.56022     0.58083     0.60851     0.64327     0.68471     0.73194     0.78362     0.83794     0.89251     0.94444    
 0.99073      1.0285      1.0553      1.0691      1.0690      1.0552      1.0285     0.99076     0.94440     0.89244    
 0.83790     0.78356     0.73181     0.68462     0.64329     0.60854     0.63086     0.60849     0.59288     0.58369    
 0.58063     0.58366     0.59293     0.60861     0.63090     0.66005     0.69609     0.73854     0.78638     0.83813    
 0.89173     0.94446     0.99330      1.0353      1.0676      1.0880      1.0949      1.0878      1.0675      1.0353    
 0.99328     0.94438     0.89169     0.83814     0.78633     0.73845     0.69608     0.66009     0.68324     0.66005    
 0.64326     0.63245     0.62715     0.62711     0.63243     0.64336     0.66017     0.68326     0.71300     0.74935    
 0.79172     0.83904     0.88967     0.94122     0.99076      1.0353      1.0718      1.0978      1.1113      1.1113    
  1.0978      1.0718      1.0353     0.99068     0.94113     0.88970     0.83910     0.79169     0.74929     0.71300    
 0.73590     0.71298     0.69607     0.68468     0.67814     0.67596     0.67806     0.68468     0.69619     0.71306    
 0.73591     0.76515     0.80064     0.84173     0.88727     0.93539     0.98348      1.0285      1.0675      1.0978    
  1.1170      1.1235      1.1169      1.0978      1.0676      1.0285     0.98337     0.93538     0.88736     0.84174    
 0.80054     0.76508     0.78651     0.76511     0.74929     0.73849     0.73192     0.72879     0.72873     0.73186    
 0.73855     0.74938     0.76511     0.78653     0.81402     0.84738     0.88590     0.92832     0.97256      1.0158    
  1.0552      1.0879      1.1113      1.1235      1.1234      1.1113      1.0880      1.0553      1.0158     0.97250    
 0.92838     0.88595     0.84728     0.81390     0.83257     0.81396     0.80057     0.79167     0.78636     0.78364    
 0.78277     0.78359     0.78640     0.79179     0.80060     0.81391     0.83262     0.85704     0.88697     0.92167    
 0.95970     0.99878      1.0362      1.0691      1.0949      1.1113      1.1169      1.1112      1.0949      1.0691    
  1.0362     0.99873     0.95972     0.92175     0.88694     0.85692     0.87160     0.85699     0.84734     0.84172    
 0.83905     0.83814     0.83795     0.83793     0.83817     0.83918     0.84183     0.84732     0.85695     0.87166    
 0.89179     0.91713     0.94687     0.97936      1.0123      1.0431      1.0691      1.0880      1.0978      1.0977    
  1.0878      1.0691      1.0431      1.0123     0.97938     0.94696     0.91719     0.89173     0.90134     0.89176    
 0.88698     0.88594     0.88732     0.88968     0.89171     0.89247     0.89170     0.88976     0.88746     0.88603    
 0.88699     0.89178     0.90139     0.91622     0.93604     0.95990     0.98605      1.0123      1.0361      1.0553    
  1.0676      1.0719      1.0675      1.0552      1.0362      1.0123     0.98607     0.95996     0.93613     0.91623    
 0.91998     0.91622     0.91718     0.92175     0.92839     0.93543     0.94121     0.94443     0.94441     0.94119    
 0.93547     0.92848     0.92182     0.91724     0.91628     0.92000     0.92884     0.94251     0.95991     0.97934    
 0.99868      1.0158      1.0285      1.0353      1.0353      1.0285      1.0158     0.99876     0.97938     0.95994    
 0.94256     0.92888     0.92634     0.92887     0.93609     0.94693     0.95974     0.97259     0.98350     0.99079    
 0.99334     0.99075     0.98346     0.97259     0.95980     0.94702     0.93618     0.92891     0.92634     0.92886    
 0.93609     0.94691     0.95970     0.97250     0.98340     0.99071     0.99330     0.99076     0.98348     0.97258    
 0.95975     0.94694     0.93611     0.92888     0.92000     0.92889     0.94256     0.95995     0.97939     0.99879    
  1.0159      1.0286      1.0354      1.0354      1.0286      1.0158     0.99878     0.97945     0.96003     0.94260    
 0.92889     0.92000     0.91623     0.91716     0.92173     0.92840     0.93541     0.94115     0.94438     0.94442    
 0.94121     0.93544     0.92842     0.92178     0.91722     0.91625     0.90139     0.91627     0.93615     0.95998    
 0.98610      1.0123      1.0362      1.0553      1.0676      1.0719      1.0677      1.0553      1.0362      1.0124    
 0.98617     0.96001     0.93613     0.91626     0.90139     0.89174     0.88692     0.88596     0.88739     0.88972    
 0.89168     0.89247     0.89173     0.88972     0.88736     0.88600     0.88704     0.89181     0.87167     0.89179    
 0.91723     0.94699     0.97941      1.0123      1.0432      1.0692      1.0879      1.0978      1.0979      1.0880    
  1.0692      1.0432      1.0124     0.97948     0.94697     0.91721     0.89183     0.87166     0.85692     0.84727    
 0.84178     0.83914     0.83815     0.83793     0.83797     0.83818     0.83911     0.84179     0.84741     0.85706    
 0.83266     0.85700     0.88701     0.92181     0.95977     0.99878      1.0362      1.0692      1.0949      1.1113    
  1.1170      1.1114      1.0949      1.0691      1.0363     0.99888     0.95980     0.92176     0.88704     0.85708    
 0.83262     0.81389     0.80056     0.79175     0.78638     0.78358     0.78278     0.78367     0.78642     0.79175    
 0.80066     0.81405     0.78661     0.81399     0.84736     0.88602     0.92845     0.97256      1.0158      1.0553    
  1.0880      1.1114      1.1235      1.1235      1.1113      1.0879      1.0553      1.0159     0.97264     0.92841    
 0.88597     0.84743     0.81405     0.78653     0.76509     0.74935     0.73853     0.73185     0.72874     0.72882    
 0.73197     0.73856     0.74938     0.76520     0.73600     0.76518     0.80064     0.84184     0.88745     0.93546    
 0.98344      1.0286      1.0677      1.0979      1.1170      1.1236      1.1170      1.0978      1.0676      1.0286    
 0.98354     0.93546     0.88733     0.84179     0.80068     0.76517     0.73591     0.71305     0.69617     0.68468    
 0.67807     0.67598     0.67818     0.68473     0.69615     0.71307     0.68333     0.71310     0.74939     0.79179    
 0.83920     0.88980     0.94122     0.99075      1.0353      1.0719      1.0978      1.1114      1.1114      1.0979    
  1.0719      1.0353     0.99080     0.94126     0.88971     0.83909     0.79176     0.74937     0.71301     0.68326    
 0.66016     0.64335     0.63244     0.62712     0.62718     0.63250     0.64332     0.66013     0.63094     0.66019    
 0.69618     0.73856     0.78644     0.83825     0.89179     0.94447     0.99336      1.0353      1.0676      1.0879    
  1.0949      1.0880      1.0677      1.0353     0.99334     0.94449     0.89175     0.83816     0.78640     0.73856    
 0.69611     0.66006     0.63090     0.60861     0.59294     0.58367     0.58065     0.58373     0.59294     0.60856    
 0.58085     0.60862     0.64338     0.68472     0.73192     0.78367     0.83801     0.89254     0.94449     0.99084    
  1.0286      1.0553      1.0691      1.0691      1.0553      1.0286     0.99075     0.94445     0.89251     0.83794    
 0.78363     0.73195     0.68472     0.64327     0.60851     0.58083     0.56022     0.54658     0.53983     0.53987    
 0.54662     0.56021     0.53469     0.56024     0.59299     0.63251     0.67815     0.72881     0.78281     0.83798    
 0.89175     0.94127     0.98356      1.0159      1.0362      1.0431      1.0362      1.0159     0.98346     0.94119    
 0.89170     0.83790     0.78273     0.72879     0.67818     0.63248     0.59289     0.56018     0.53468     0.51647    
 0.50558     0.50199     0.50564     0.51650     0.49374     0.51650     0.54663     0.58375     0.62720     0.67604    
 0.72883     0.78366     0.83816     0.88972     0.93548     0.97264     0.99883      1.0124      1.0124     0.99880    
 0.97257     0.93542     0.88971     0.83812     0.78354     0.72871     0.67598     0.62718     0.58370     0.54659    
 0.51649     0.49373     0.47849     0.47089     0.47092     0.47855     0.45898     0.47852     0.50562     0.53987    
 0.58068     0.62720     0.67819     0.73199     0.78644     0.83913     0.88737     0.92842     0.95977     0.97944    
 0.98615     0.97944     0.95974     0.92839     0.88737     0.83912     0.78636     0.73183     0.67806     0.62712    
 0.58063     0.53982     0.50561     0.47854     0.45897     0.44715     0.44322     0.44719     0.43116     0.44718    
 0.47092     0.50200     0.53986     0.58371     0.63250     0.68477     0.73864     0.79183     0.84182     0.88598    
 0.92174     0.94693     0.95996     0.95998     0.94694     0.92171     0.88593     0.84178     0.79176     0.73853    
 0.68466     0.63242     0.58364     0.53979     0.50195     0.47091     0.44718     0.43114     0.42307     0.42308    
 0.41085     0.42308     0.44323     0.47093     0.50563     0.54661     0.59293     0.64334     0.69620     0.74944    
 0.80070     0.84742     0.88702     0.91719     0.93609     0.94254     0.93611     0.91716     0.88692     0.84729    
 0.80059     0.74935     0.69613     0.64331     0.59290     0.54655     0.50555     0.47087     0.44321     0.42307    
 0.41083     0.40673     0.39847     0.40673     0.42308     0.44718     0.47856     0.51652     0.56024     0.60858    
 0.66013     0.71305     0.76518     0.81404     0.85708     0.89184     0.91626     0.92887     0.92887     0.91624    
 0.89175     0.85693     0.81389     0.76506     0.71298     0.66009     0.60856     0.56019     0.51645     0.47848    
 0.44714     0.42306     0.40672     0.39847     0.40495     0.40926     0.42210     0.44326     0.47236     0.50884    
 0.55196     0.60070     0.65371     0.70927     0.76525     0.81918     0.86835     0.91004     0.94180     0.96168    
 0.96844     0.96166     0.94176     0.90998     0.86826     0.81907     0.76514     0.70917     0.65363     0.60063    
 0.55191     0.50879     0.47232     0.44323     0.42209     0.40925     0.40926     0.40926     0.41839     0.43650    
 0.46332     0.49840     0.54111     0.59053     0.64540     0.70405     0.76440     0.82394     0.87985     0.92917    
 0.96910     0.99718      1.0117      1.0116     0.99714     0.96907     0.92917     0.87982     0.82386     0.76428    
 0.70391     0.64527     0.59044     0.54107     0.49839     0.46331     0.43649     0.41838     0.42210     0.41728    
 0.42210     0.43651     0.46032     0.49320     0.53466     0.58395     0.63994     0.70108     0.76535     0.83024    
 0.89283     0.94994     0.99843      1.0354      1.0586      1.0665      1.0586      1.0354     0.99840     0.94991    
 0.89276     0.83015     0.76524     0.70096     0.63983     0.58389     0.53464     0.49318     0.46029     0.43649    
 0.44325     0.43318     0.43317     0.44325     0.46334     0.49323     0.53255     0.58074     0.63688     0.69958    
 0.76695     0.83656     0.90545     0.97025      1.0275      1.0739      1.1066      1.1235      1.1235      1.1066    
  1.0738      1.0274     0.97014     0.90534     0.83650     0.76690     0.69952     0.63682     0.58070     0.53251    
 0.49317     0.46330     0.47232     0.45666     0.45142     0.45664     0.47234     0.49843     0.53469     0.58076    
 0.63593     0.69902     0.76832     0.84158     0.91591     0.98787      1.0537      1.1097      1.1525      1.1793    
  1.1885      1.1793      1.1524      1.1096      1.0536     0.98771     0.91583     0.84157     0.76831     0.69897    
 0.63588     0.58072     0.53463     0.49836     0.50877     0.48727     0.47652     0.47649     0.48725     0.50881    
 0.54110     0.58395     0.63690     0.69906     0.76891     0.84438     0.92281      1.0008      1.0745      1.1397    
  1.1927      1.2302      1.2495      1.2495      1.2302      1.1928      1.1397      1.0744      1.0007     0.92278    
 0.84437     0.76883     0.69897     0.63686     0.58392     0.54104     0.55186     0.52440     0.50800     0.50251    
 0.50795     0.52440     0.55192     0.59046     0.63988     0.69959     0.76839     0.84444     0.92526      1.0077    
  1.0879      1.1615      1.2243      1.2723      1.3026      1.3128      1.3025      1.2724      1.2243      1.1615    
  1.0878      1.0076     0.92521     0.84434     0.76826     0.69953     0.63989     0.59045     0.60059     0.56722    
 0.54518     0.53421     0.53418     0.54516     0.56729     0.60065     0.64528     0.70098     0.76694     0.84163    
 0.92285      1.0077      1.0925      1.1729      1.2443      1.3026      1.3437      1.3650      1.3650      1.3437    
  1.3026      1.2444      1.1728      1.0924      1.0077     0.92279     0.84150     0.76685     0.70100     0.64531    
 0.65363     0.61468     0.58721     0.57091     0.56548     0.57087     0.58726     0.61480     0.65367     0.70393    
 0.76524     0.83651     0.91587      1.0008      1.0879      1.1729      1.2512      1.3183      1.3698      1.4022    
  1.4132      1.4021      1.3697      1.3183      1.2512      1.1728      1.0878      1.0008     0.91583     0.83641    
 0.76523     0.70398     0.70923     0.66538     0.63297     0.61175     0.60123     0.60118     0.61172     0.63308    
 0.66550     0.70923     0.76432     0.83016     0.90535     0.98773      1.0744      1.1615      1.2444      1.3183    
  1.3787      1.4216      1.4437      1.4437      1.4215      1.3787      1.3183      1.2443      1.1614      1.0744    
 0.98780     0.90530     0.83009     0.76433     0.76523     0.71751     0.68100     0.65551     0.64050     0.63548    
 0.64041     0.65552     0.68112     0.71758     0.76522     0.82393     0.89280     0.97014      1.0535      1.1397    
  1.2243      1.3025      1.3697      1.4215      1.4541      1.4653      1.4541      1.4215      1.3698      1.3025    
  1.2242      1.1397      1.0536     0.97015     0.89269     0.82387     0.81914     0.76892     0.72945     0.70064    
 0.68199     0.67280     0.67274     0.68193     0.70072     0.72954     0.76891     0.81914     0.87988     0.94994    
  1.0274      1.1096      1.1928      1.2724      1.3437      1.4021      1.4437      1.4652      1.4652      1.4437    
  1.4022      1.3438      1.2723      1.1927      1.1097      1.0275     0.94984     0.87976     0.86826     0.81716    
 0.77619     0.74531     0.72408     0.71174     0.70765     0.71168     0.72412     0.74544     0.77622     0.81710    
 0.86830     0.92920     0.99841      1.0738      1.1524      1.2302      1.3026      1.3650      1.4132      1.4437    
  1.4541      1.4436      1.4132      1.3651      1.3026      1.2301      1.1524      1.0739     0.99839     0.92907    
 0.90992     0.85969     0.81886     0.78740     0.76490     0.75060     0.74365     0.74362     0.75061     0.76504    
 0.78752     0.81884     0.85965     0.90999     0.96907      1.0354      1.1065      1.1793      1.2495      1.3129    
  1.3650      1.4022      1.4215      1.4214      1.4021      1.3650      1.3129      1.2495      1.1793      1.1066    
  1.0354     0.96901     0.94170     0.89409     0.85507     0.82464     0.80238     0.78748     0.77901     0.77624    
 0.77899     0.78755     0.80252     0.82472     0.85506     0.89411     0.94176     0.99712      1.0585      1.1234    
  1.1884      1.2495      1.3025      1.3437      1.3699      1.3788      1.3698      1.3437      1.3026      1.2495    
  1.1884      1.1235      1.0586     0.99714     0.96163     0.91830     0.88265     0.85482     0.83432     0.82032    
 0.81178     0.80775     0.80772     0.81175     0.82037     0.83441     0.85488     0.88270     0.91836     0.96166    
  1.0116      1.0665      1.1235      1.1792      1.2301      1.2723      1.3026      1.3184      1.3183      1.3026    
  1.2724      1.2302      1.1793      1.1235      1.0665      1.0117     0.96844     0.93083     0.89994     0.87605    
 0.85872     0.84705     0.83990     0.83614     0.83496     0.83610     0.83987     0.84707     0.85877     0.87612    
 0.90002     0.93087     0.96843      1.0116      1.0586      1.1066      1.1524      1.1927      1.2242      1.2443    
  1.2512      1.2444      1.2243      1.1928      1.1525      1.1066      1.0586      1.0117     0.96167     0.93085    
 0.90586     0.88703     0.87402     0.86593     0.86150     0.85944     0.85871     0.85872     0.85944     0.86148    
 0.86593     0.87407     0.88709     0.90589     0.93085     0.96164     0.99713      1.0354      1.0739      1.1097    
  1.1397      1.1614      1.1728      1.1728      1.1615      1.1398      1.1097      1.0739      1.0354     0.99717    
 0.94176     0.91835     0.90000     0.88706     0.87925     0.87571     0.87510     0.87599     0.87712     0.87763    
 0.87718     0.87603     0.87510     0.87573     0.87931     0.88708     0.89998     0.91834     0.94174     0.96902    
 0.99837      1.0275      1.0537      1.0745      1.0878      1.0924      1.0878      1.0745      1.0537      1.0275    
 0.99848     0.96910     0.91000     0.89412     0.88270     0.87610     0.87405     0.87571     0.87977     0.88461    
 0.88878     0.89121     0.89127     0.88886     0.88462     0.87976     0.87577     0.87410     0.87609     0.88269    
 0.89415     0.90997     0.92907     0.94983     0.97018     0.98783      1.0008      1.0077      1.0077      1.0008    
 0.98780     0.97020     0.94998     0.92922     0.86835     0.85970     0.85509     0.85487     0.85875     0.86593    
 0.87512     0.88466     0.89284     0.89834     0.90032     0.89839     0.89282     0.88459     0.87513     0.86601    
 0.85877     0.85484     0.85512     0.85977     0.86830     0.87975     0.89271     0.90536     0.91587     0.92282    
 0.92530     0.92290     0.91591     0.90537     0.89281     0.87991     0.81922     0.81719     0.81889     0.82472    
 0.83438     0.84704     0.86148     0.87604     0.88888     0.89839     0.90347     0.90349     0.89837     0.88878    
 0.87598     0.86154     0.84710     0.83433     0.82467     0.81894     0.81724     0.81915     0.82388     0.83015    
 0.83648     0.84154     0.84439     0.84446     0.84165     0.83653     0.83019     0.82398     0.76532     0.76899    
 0.77626     0.78753     0.80251     0.82036     0.83986     0.85943     0.87717     0.89127     0.90035     0.90352    
 0.90038     0.89123     0.87708     0.85943     0.83994     0.82034     0.80239     0.78747     0.77629     0.76897    
 0.76524     0.76438     0.76531     0.76690     0.76828     0.76888     0.76839     0.76696     0.76530     0.76441    
 0.70931     0.71763     0.72956     0.74544     0.76506     0.78759     0.81179     0.83611     0.85870     0.87762    
 0.89123     0.89840     0.89845     0.89129     0.87759     0.85867     0.83616     0.81182     0.78751     0.76494    
 0.74539     0.72952     0.71754     0.70925     0.70404     0.70106     0.69955     0.69899     0.69904     0.69961    
 0.70104     0.70401     0.65371     0.66552     0.68112     0.70073     0.72417     0.75069     0.77908     0.80778    
 0.83499     0.85871     0.87710     0.88878     0.89284     0.88887     0.87715     0.85867     0.83496     0.80780    
 0.77905     0.75061     0.72412     0.70071     0.68103     0.66539     0.65367     0.64538     0.63993     0.63688    
 0.63593     0.63692     0.63992     0.64534     0.60067     0.61482     0.63310     0.65556     0.68200     0.71177    
 0.74371     0.77631     0.80780     0.83618     0.85946     0.87596     0.88456     0.88461     0.87602     0.85942    
 0.83610     0.80775     0.77627     0.74365     0.71174     0.68202     0.65555     0.63299     0.61470     0.60064    
 0.59050     0.58394     0.58076     0.58079     0.58398     0.59049     0.55193     0.56731     0.58731     0.61180    
 0.64051     0.67282     0.70770     0.74368     0.77904     0.81183     0.83996     0.86153     0.87509     0.87973    
 0.87510     0.86149     0.83987     0.81175     0.77899     0.74360     0.70761     0.67280     0.64053     0.61177    
 0.58722     0.56725     0.55191     0.54108     0.53466     0.53256     0.53471     0.54111     0.50882     0.52444    
 0.54523     0.57097     0.60128     0.63556     0.67284     0.71176     0.75062     0.78752     0.82038     0.84711    
 0.86597     0.87573     0.87573     0.86594     0.84705     0.82032     0.78750     0.75057     0.71163     0.67272    
 0.63551     0.60126     0.57092     0.54518     0.52442     0.50880     0.49838     0.49319     0.49322     0.49843    
 0.47236     0.48729     0.50801     0.53424     0.56554     0.60127     0.64054     0.68205     0.72417     0.76499    
 0.80244     0.83436     0.85875     0.87406     0.87929     0.87406     0.85872     0.83432     0.80244     0.76498    
 0.72408     0.68190     0.64041     0.60119     0.56548     0.53420     0.50800     0.48730     0.47234     0.46330    
 0.46031     0.46334     0.44327     0.45668     0.47654     0.50255     0.53423     0.57093     0.61179     0.65560    
 0.70079     0.74547     0.78751     0.82469     0.85482     0.87605     0.88704     0.88705     0.87605     0.85478    
 0.82463     0.78747     0.74541     0.70070     0.65549     0.61170     0.57086     0.53415     0.50250     0.47653    
 0.45668     0.44325     0.43650     0.43651     0.42212     0.43320     0.45145     0.47655     0.50802     0.54521    
 0.58726     0.63307     0.68113     0.72960     0.77631     0.81894     0.85510     0.88266     0.89995     0.90585    
 0.89996     0.88263     0.85499     0.81880     0.77620     0.72951     0.68107     0.63303     0.58722     0.54513    
 0.50794     0.47650     0.45143     0.43319     0.42210     0.41839     0.40926     0.41729     0.43319     0.45668    
 0.48732     0.52446     0.56731     0.61478     0.66547     0.71759     0.76899     0.81723     0.85977     0.89416    
 0.91835     0.93084     0.93084     0.91833     0.89408     0.85963     0.81707     0.76886     0.71751     0.66543    
 0.61476     0.56727     0.52439     0.48724     0.45664     0.43317     0.41728     0.40926     0.43703     0.44183    
 0.45620     0.48003     0.51309     0.55493     0.60481     0.66165     0.72387     0.78944     0.85580     0.91996    
 0.97864      1.0285      1.0666      1.0905      1.0986      1.0905      1.0666      1.0285     0.97855     0.91985    
 0.85568     0.78933     0.72379     0.66158     0.60476     0.55488     0.51305     0.48000     0.45618     0.44182    
 0.44183     0.44183     0.45259     0.47405     0.50609     0.54838     0.60033     0.66095     0.72872     0.80160    
 0.87693     0.95153      1.0218      1.0840      1.1344      1.1699      1.1882      1.1882      1.1698      1.1343    
  1.0839      1.0218     0.95145     0.87681     0.80146     0.72860     0.66086     0.60030     0.54836     0.50607    
 0.47403     0.45258     0.45620     0.45024     0.45620     0.47406     0.50378     0.54516     0.59781     0.66090    
 0.73308     0.81236     0.89609     0.98095      1.0630      1.1382      1.2021      1.2509      1.2815      1.2920    
  1.2815      1.2508      1.2020      1.1381      1.0630     0.98087     0.89599     0.81224     0.73297     0.66084    
 0.59779     0.54514     0.50374     0.47404     0.48002     0.46700     0.46699     0.48002     0.50611     0.54518    
 0.59701     0.66103     0.73609     0.82038     0.91134      1.0057      1.0993      1.1875      1.2657      1.3291    
  1.3739      1.3971      1.3970      1.3738      1.3290      1.2656      1.1874      1.0992      1.0056     0.91130    
 0.82031     0.73602     0.66099     0.59698     0.54513     0.50606     0.51305     0.49193     0.48489     0.49191    
 0.51306     0.54840     0.59783     0.66104     0.73718     0.82468     0.92117      1.0235      1.1275      1.2284    
  1.3209      1.3996      1.4599      1.4978      1.5107      1.4978      1.4599      1.3996      1.3207      1.2282    
  1.1274      1.0235     0.92116     0.82462     0.73712     0.66100     0.59777     0.54833     0.55485     0.52473    
 0.50971     0.50968     0.52470     0.55489     0.60033     0.66089     0.73609     0.82471     0.92461      1.0328    
  1.1454      1.2576      1.3636      1.4577      1.5342      1.5882      1.6162      1.6162      1.5883      1.5342    
  1.4577      1.3635      1.2575      1.1454      1.0328     0.92454     0.82462     0.73606     0.66087     0.60026    
 0.60471     0.56485     0.54109     0.53317     0.54104     0.56485     0.60478     0.66089     0.73302     0.82038    
 0.92124      1.0329      1.1516      1.2728      1.3907      1.4991      1.5915      1.6624      1.7070      1.7222    
  1.7070      1.6625      1.5916      1.4990      1.3906      1.2727      1.1516      1.0328     0.92110     0.82032    
 0.73304     0.66087     0.66154     0.61150     0.57846     0.56204     0.56201     0.57844     0.61157     0.66160    
 0.72861     0.81226     0.91134      1.0235      1.1455      1.2728      1.4000      1.5206      1.6278      1.7152    
  1.7771      1.8091      1.8090      1.7770      1.7152      1.6279      1.5205      1.3999      1.2728      1.1454    
  1.0234     0.91124     0.81229     0.72865     0.72379     0.66357     0.62103     0.59577     0.58736     0.59572    
 0.62107     0.66370     0.72382     0.80147     0.89599      1.0056      1.1275      1.2575      1.3907      1.5206    
  1.6402      1.7426      1.8213      1.8708      1.8876      1.8706      1.8212      1.7426      1.6402      1.5205    
  1.3907      1.2576      1.1274      1.0055     0.89597     0.80153     0.78940     0.71953     0.66769     0.63360    
 0.61669     0.61663     0.63356     0.66779     0.71965     0.78939     0.87684     0.98088      1.0992      1.2283    
  1.3635      1.4991      1.6278      1.7426      1.8363      1.9028      1.9372      1.9371      1.9027      1.8363    
  1.7426      1.6278      1.4990      1.3636      1.2283      1.0991     0.98080     0.87687     0.85578     0.77737    
 0.71693     0.67443     0.64928     0.64090     0.64918     0.67444     0.71707     0.77743     0.85575     0.95151    
  1.0630      1.1874      1.3207      1.4577      1.5916      1.7152      1.8211      1.9027      1.9541      1.9716    
  1.9541      1.9028      1.8213      1.7152      1.5915      1.4576      1.3208      1.1874      1.0629     0.95146    
 0.91992     0.83465     0.76687     0.71682     0.68407     0.66786     0.66778     0.68399     0.71691     0.76697    
 0.83463     0.91991      1.0218      1.1381      1.2656      1.3995      1.5342      1.6625      1.7770      1.8706    
  1.9371      1.9716      1.9716      1.9371      1.8708      1.7771      1.6624      1.5341      1.3996      1.2656    
  1.1381      1.0217     0.97855     0.88860     0.81525     0.75900     0.71966     0.69647     0.68876     0.69639    