unknown system                          
   1.00000000000000     
     3.190316    0.000000    0.000000
    -1.595158    2.762894    0.000000
     0.000000    0.000000   14.879004
   Mo   S 
     2     4
Direct
  0.333333  0.666667  0.250000
  0.666667  0.333333  0.750000
  0.333333  0.666667  0.855174
  0.666667  0.333333  0.144826
  0.666666  0.333333  0.355174
  0.333334  0.666667  0.644826
 
   32   32  160
 0.39431727690E+00 0.39846992290E+00 0.41083260169E+00 0.43114486348E+00 0.45898390908E+00
 0.49376680002E+00 0.53472994864E+00 0.58088158918E+00 0.63094001827E+00 0.68328141129E+00
 0.73592143298E+00 0.78655279248E+00 0.83265958302E+00 0.87171529825E+00 0.90143573159E+00
 0.92002296776E+00 0.92633998765E+00 0.91999939381E+00 0.90138841981E+00 0.87164569540E+00
 0.83257242045E+00 0.78645582982E+00 0.73582324378E+00 0.68318883879E+00 0.63085696410E+00
 0.58080951003E+00 0.53466918354E+00 0.49371756639E+00 0.45894640841E+00 0.43111878132E+00
 0.41081675653E+00 0.39846262550E+00 0.39846738121E+00 0.39846858710E+00 0.40672795583E+00
 0.42307281417E+00 0.44716370931E+00 0.47851893101E+00 0.51649987776E+00 0.56024939398E+00
 0.60862823135E+00 0.66017341132E+00 0.71306917504E+00 0.76514935402E+00 0.81397729459E+00
 0.85700996505E+00 0.89180946032E+00 0.91627661764E+00 0.92888592298E+00 0.92886051267E+00
 0.91622813641E+00 0.89178042396E+00 0.85699921857E+00 0.81394774567E+00 0.76507557665E+00
 0.71295405787E+00 0.66003579376E+00 0.60849832229E+00 0.56016074454E+00 0.51646146604E+00
 0.47850497637E+00 0.44714701376E+00 0.42305403103E+00 0.40671886919E+00 0.41083003433E+00
 0.40672520542E+00 0.41083130043E+00 0.42308019441E+00 0.44323023021E+00 0.47089941273E+00
 0.50558249783E+00 0.54658821381E+00 0.59294896915E+00 0.64337178780E+00 0.69620948857E+00
 0.74943256375E+00 0.80066982036E+00 0.84736445845E+00 0.88698050189E+00 0.91719727088E+00
 0.93612415179E+00 0.94254238092E+00 0.93606581262E+00 0.91714099160E+00 0.88695497759E+00
 0.84733511643E+00 0.80060334063E+00 0.74933514165E+00 0.69609529345E+00 0.64324918120E+00
 0.59284520723E+00 0.54653481165E+00 0.50556739621E+00 0.47088001124E+00 0.44319650611E+00
 0.42305878648E+00 0.43113268794E+00 0.42306582510E+00 0.42305854211E+00 0.43113887978E+00
 0.44718538572E+00 0.47092503313E+00 0.50197661751E+00 0.53981928262E+00 0.58368151439E+00
 0.63246478420E+00 0.68471983284E+00 0.73860083414E+00 0.79183703232E+00 0.84184837914E+00
 0.88598559912E+00 0.92174863355E+00 0.94695834247E+00 0.95997632005E+00 0.95994514249E+00
 0.94689536688E+00 0.92168768726E+00 0.88590539010E+00 0.84172968133E+00 0.79172088330E+00
 0.73852919444E+00 0.68467081563E+00 0.63240384234E+00 0.58362368525E+00 0.53978483594E+00
 0.50194006732E+00 0.47086610436E+00 0.44713786240E+00 0.45894640858E+00 0.44715918902E+00
 0.44320078815E+00 0.44713760299E+00 0.45896522388E+00 0.47854320388E+00 0.50562001627E+00
 0.53984320049E+00 0.58065118284E+00 0.62715309212E+00 0.67810376814E+00 0.73188385178E+00
 0.78641758635E+00 0.83917913513E+00 0.88741012076E+00 0.92841187107E+00 0.95974857583E+00
 0.97942333234E+00 0.98612009112E+00 0.97940016650E+00 0.95972192898E+00 0.92835433348E+00
 0.88728163151E+00 0.83902618601E+00 0.78633474500E+00 0.73187672483E+00 0.67809100729E+00
 0.62709981756E+00 0.58059566427E+00 0.53979709966E+00 0.50555411823E+00 0.47847405033E+00
 0.49369404732E+00 0.47851088059E+00 0.47089792532E+00 0.47087226185E+00 0.47848648729E+00
 0.49373035117E+00 0.51649318301E+00 0.54659520466E+00 0.58371049296E+00 0.62719374774E+00
 0.67600622751E+00 0.72874173374E+00 0.78357395177E+00 0.83816030531E+00 0.88973894230E+00
 0.93543665630E+00 0.97255671610E+00 0.99876799105E+00 0.10123269125E+01 0.10123244524E+01
 0.99878159648E+00 0.97258308038E+00 0.93540588127E+00 0.88962767395E+00 0.83805649823E+00
 0.78354294771E+00 0.72872333242E+00 0.67593140482E+00 0.62710246884E+00 0.58366111175E+00
 0.54655833095E+00 0.51643319088E+00 0.53462779433E+00 0.51645776625E+00 0.50560321431E+00
 0.50196785541E+00 0.50556551160E+00 0.51646426204E+00 0.53467883943E+00 0.56018373899E+00
 0.59289656758E+00 0.63248517516E+00 0.67818419882E+00 0.72880016319E+00 0.78274300102E+00
 0.83792493895E+00 0.89172038515E+00 0.94119310226E+00 0.98343621039E+00 0.10158093670E+01
 0.10361511686E+01 0.10430688068E+01 0.10361332881E+01 0.10158381908E+01 0.98349178006E+00
 0.94118366302E+00 0.89164482472E+00 0.83786465642E+00 0.78269847144E+00 0.72869981272E+00
 0.67804961826E+00 0.63241774959E+00 0.59289987423E+00 0.56016549959E+00 0.58077367592E+00
 0.56015115738E+00 0.54658085303E+00 0.53983911546E+00 0.53981514585E+00 0.54657382076E+00
 0.56021691670E+00 0.58082770063E+00 0.60851222338E+00 0.64326949637E+00 0.68471130957E+00
 0.73194240805E+00 0.78362356785E+00 0.83794365907E+00 0.89250731406E+00 0.94443923954E+00
 0.99072573207E+00 0.10285045358E+01 0.10552521034E+01 0.10690720847E+01 0.10690226977E+01
 0.10551884507E+01 0.10285226836E+01 0.99076230200E+00 0.94440258808E+00 0.89243781835E+00
 0.83790048987E+00 0.78355526119E+00 0.73181472039E+00 0.68462107562E+00 0.64328501502E+00
 0.60853891092E+00 0.63085696362E+00 0.60849389976E+00 0.59288232520E+00 0.58369029147E+00
 0.58062732295E+00 0.58366149038E+00 0.59293490672E+00 0.60860993555E+00 0.63089842989E+00
 0.66005259998E+00 0.69609363170E+00 0.73853642437E+00 0.78637706743E+00 0.83813436173E+00
 0.89173079128E+00 0.94446375697E+00 0.99330327734E+00 0.10352640464E+01 0.10675910381E+01
 0.10879573180E+01 0.10948501165E+01 0.10878471501E+01 0.10675274814E+01 0.10352810920E+01
 0.99328080502E+00 0.94437776946E+00 0.89168621437E+00 0.83814066999E+00 0.78633474435E+00
 0.73845463509E+00 0.69608201608E+00 0.66009169076E+00 0.68323843300E+00 0.66004838219E+00
 0.64325754806E+00 0.63245275397E+00 0.62714554528E+00 0.62710501924E+00 0.63243255667E+00
 0.64335981041E+00 0.66016899454E+00 0.68325988431E+00 0.71299604900E+00 0.74934597465E+00
 0.79172282691E+00 0.83904493188E+00 0.88966562253E+00 0.94121548583E+00 0.99076128354E+00
 0.10352512461E+01 0.10718089775E+01 0.10978433548E+01 0.11113385368E+01 0.11112793100E+01
 0.10977703668E+01 0.10718304334E+01 0.10352700335E+01 0.99067687412E+00 0.94113406942E+00
 0.88970078832E+00 0.83910195056E+00 0.79168519540E+00 0.74928554766E+00 0.71299889708E+00
 0.73590059164E+00 0.71298448043E+00 0.69606970117E+00 0.68467502170E+00 0.67814082340E+00
 0.67596081082E+00 0.67806044281E+00 0.68468359290E+00 0.69618557235E+00 0.71305762720E+00
 0.73591105955E+00 0.76514772872E+00 0.80064035594E+00 0.84173260033E+00 0.88726840242E+00
 0.93539162094E+00 0.98347610186E+00 0.10285004165E+01 0.10675079789E+01 0.10977761723E+01
 0.11169589557E+01 0.11234904587E+01 0.11169175162E+01 0.10978199613E+01 0.10676048288E+01
 0.10284868492E+01 0.98337304295E+00 0.93538236247E+00 0.88735897956E+00 0.84174358765E+00
 0.80053927052E+00 0.76508033260E+00 0.78651257104E+00 0.76510782577E+00 0.74929229963E+00
 0.73848957902E+00 0.73191658208E+00 0.72879162131E+00 0.72873315356E+00 0.73185798690E+00
 0.73855406407E+00 0.74937906510E+00 0.76510961179E+00 0.78653272147E+00 0.81402268094E+00
 0.84737546522E+00 0.88589974494E+00 0.92832329824E+00 0.97255996723E+00 0.10158401800E+01
 0.10552067460E+01 0.10878607366E+01 0.11112736914E+01 0.11234656301E+01 0.11234337177E+01
 0.11112721640E+01 0.10879645441E+01 0.10552810245E+01 0.10157814489E+01 0.97250281997E+00
 0.92838490436E+00 0.88594822395E+00 0.84727837489E+00 0.81389576041E+00 0.83257242107E+00
 0.81396003974E+00 0.80057212183E+00 0.79167331890E+00 0.78636091334E+00 0.78363666951E+00
 0.78276728162E+00 0.78358683113E+00 0.78640121447E+00 0.79178752684E+00 0.80060178866E+00
 0.81391482252E+00 0.83261596850E+00 0.85704278617E+00 0.88697283064E+00 0.92167197582E+00
 0.95969530628E+00 0.99877850467E+00 0.10361658401E+01 0.10690652546E+01 0.10948597969E+01
 0.11112939740E+01 0.11168816071E+01 0.11112119187E+01 0.10948501176E+01 0.10691355556E+01
 0.10361746766E+01 0.99872809165E+00 0.95972192943E+00 0.92175080446E+00 0.88694169909E+00
 0.85691743897E+00 0.87159856741E+00 0.85698505324E+00 0.84733527195E+00 0.84171893982E+00
 0.83905056008E+00 0.83814472313E+00 0.83795116859E+00 0.83793228652E+00 0.83817034335E+00
 0.83918456157E+00 0.84183470329E+00 0.84732425463E+00 0.85695209197E+00 0.87165685572E+00
 0.89178637384E+00 0.91713302425E+00 0.94686743068E+00 0.97936434797E+00 0.10123053460E+01
 0.10430786590E+01 0.10690951505E+01 0.10879646064E+01 0.10978233000E+01 0.10977466310E+01
 0.10878495373E+01 0.10690833806E+01 0.10431159353E+01 0.10123008430E+01 0.97937920885E+00
 0.94695640274E+00 0.91718811977E+00 0.89172853938E+00 0.90133918253E+00 0.89175675602E+00
 0.88698279348E+00 0.88594457792E+00 0.88731696099E+00 0.88968488979E+00 0.89171192345E+00
 0.89247141321E+00 0.89170159390E+00 0.88975828338E+00 0.88745860556E+00 0.88603014281E+00
 0.88699013820E+00 0.89177980820E+00 0.90138764684E+00 0.91621521175E+00 0.93603999765E+00
 0.95989521410E+00 0.98604816849E+00 0.10122582172E+01 0.10361166035E+01 0.10552634880E+01
 0.10676345640E+01 0.10718585709E+01 0.10675418003E+01 0.10552162701E+01 0.10361590166E+01
 0.10123033926E+01 0.98607085402E+00 0.95995904986E+00 0.93612832762E+00 0.91623289129E+00
 0.91998087637E+00 0.91621825335E+00 0.91717601776E+00 0.92174536486E+00 0.92839455282E+00
 0.93542942297E+00 0.94121058379E+00 0.94443104493E+00 0.94440674135E+00 0.94118860296E+00
 0.93547462899E+00 0.92848296967E+00 0.92182185200E+00 0.91724036932E+00 0.91627993555E+00
 0.92000197102E+00 0.92884325657E+00 0.94250714514E+00 0.95991373071E+00 0.97933573557E+00
 0.99868296341E+00 0.10157649226E+01 0.10285189341E+01 0.10353193574E+01 0.10353061817E+01
 0.10285218523E+01 0.10158278837E+01 0.99876298800E+00 0.97937864456E+00 0.95994389651E+00
 0.94256089802E+00 0.92888378477E+00 0.92633998761E+00 0.92886882078E+00 0.93609217077E+00
 0.94692879220E+00 0.95974434243E+00 0.97259045904E+00 0.98349920374E+00 0.99078928250E+00
 0.99333562421E+00 0.99075386652E+00 0.98345944812E+00 0.97258732398E+00 0.95979783717E+00
 0.94702001820E+00 0.93617642425E+00 0.92891113236E+00 0.92633968810E+00 0.92886177278E+00
 0.93608923488E+00 0.94691455982E+00 0.95969530562E+00 0.97250322479E+00 0.98339875396E+00
 0.99071169048E+00 0.99330327777E+00 0.99076156495E+00 0.98347759956E+00 0.97258023630E+00
 0.95974857561E+00 0.94694443463E+00 0.93611087394E+00 0.92888116842E+00 0.92000445247E+00
 0.92889409941E+00 0.94256244112E+00 0.95994600378E+00 0.97939149524E+00 0.99879229921E+00
 0.10158715965E+01 0.10285720181E+01 0.10353556458E+01 0.10353683574E+01 0.10285760013E+01
 0.10158408286E+01 0.99878204286E+00 0.97945070606E+00 0.96002704942E+00 0.94259737330E+00
 0.92889261593E+00 0.92000197023E+00 0.91623372778E+00 0.91716163744E+00 0.92173048442E+00
 0.92839855481E+00 0.93541013590E+00 0.94114737524E+00 0.94438458898E+00 0.94442192221E+00
 0.94121161812E+00 0.93544166007E+00 0.92841952613E+00 0.92178105621E+00 0.91721578635E+00
 0.91625334625E+00 0.90138649568E+00 0.91626649470E+00 0.93615035022E+00 0.95997721695E+00
 0.98609586543E+00 0.10123439352E+01 0.10362166621E+01 0.10552841466E+01 0.10676092676E+01
 0.10719193608E+01 0.10676922122E+01 0.10553294129E+01 0.10362019577E+01 0.10123653978E+01
 0.98616757659E+00 0.96000853340E+00 0.93612718837E+00 0.91626141893E+00 0.90138764548E+00
 0.89173924510E+00 0.88692359542E+00 0.88595648697E+00 0.88739498617E+00 0.88971521596E+00
 0.89168155492E+00 0.89247148072E+00 0.89172823180E+00 0.88971542243E+00 0.88736088503E+00
 0.88599950648E+00 0.88704301553E+00 0.89181421520E+00 0.87166816946E+00 0.89178571329E+00
 0.91723213201E+00 0.94699180498E+00 0.97941483590E+00 0.10123464823E+01 0.10431772931E+01
 0.10691582012E+01 0.10879284538E+01 0.10978194382E+01 0.10978866253E+01 0.10880250000E+01
 0.10691648758E+01 0.10431671844E+01 0.10124125258E+01 0.97947931771E+00 0.94697289064E+00
 0.91721175846E+00 0.89182693616E+00 0.87165685417E+00 0.85691863356E+00 0.84727159699E+00
 0.84177972935E+00 0.83914165409E+00 0.83814788568E+00 0.83793236470E+00 0.83797206703E+00
 0.83818391312E+00 0.83910583602E+00 0.84178734475E+00 0.84741158691E+00 0.85706184801E+00
 0.83265958232E+00 0.85699593423E+00 0.88700826277E+00 0.92180624294E+00 0.95977117984E+00
 0.99877892284E+00 0.10362345525E+01 0.10692074826E+01 0.10949302142E+01 0.11112914141E+01
 0.11169528532E+01 0.11113563008E+01 0.10949205447E+01 0.10691349806E+01 0.10362511943E+01
 0.99887758203E+00 0.95979783652E+00 0.92176334549E+00 0.88703937610E+00 0.85707624384E+00
 0.83261596718E+00 0.81388891577E+00 0.80056300870E+00 0.79175025658E+00 0.78637706722E+00
 0.78358237801E+00 0.78278439086E+00 0.78367449471E+00 0.78641758548E+00 0.79174610176E+00
 0.80065654318E+00 0.81404956277E+00 0.78660953327E+00 0.81398973677E+00 0.84736463894E+00
 0.88602463487E+00 0.92845214913E+00 0.97256435264E+00 0.10158427591E+01 0.10553475124E+01
 0.10880384387E+01 0.11113506614E+01 0.11235104909E+01 0.11235353017E+01 0.11113360177E+01
 0.10879211310E+01 0.10552726728E+01 0.10159160860E+01 0.97264406362E+00 0.92840771154E+00
 0.88597340278E+00 0.84742812518E+00 0.81404858719E+00 0.78653272070E+00 0.76509098762E+00
 0.74935312140E+00 0.73853251245E+00 0.73184983339E+00 0.72874342300E+00 0.72882199486E+00
 0.73196676290E+00 0.73855799947E+00 0.74937582316E+00 0.76520133999E+00 0.73599878090E+00
 0.76518159281E+00 0.80063864339E+00 0.84183755223E+00 0.88744536771E+00 0.93546031029E+00
 0.98344360789E+00 0.10285535558E+01 0.10676726589E+01 0.10978925385E+01 0.11169944252E+01
 0.11235672320E+01 0.11170302005E+01 0.10978394963E+01 0.10675656284E+01 0.10285574863E+01
 0.98353679609E+00 0.93545611133E+00 0.88733202038E+00 0.84178757562E+00 0.80067913728E+00
 0.76516635276E+00 0.73591105949E+00 0.71304564350E+00 0.69617097919E+00 0.68467547519E+00
 0.67806546165E+00 0.67598270871E+00 0.67818111625E+00 0.68473373916E+00 0.69614541840E+00
 0.71307393099E+00 0.68333100579E+00 0.71309949352E+00 0.74938980804E+00 0.79178955723E+00
 0.83920336617E+00 0.88979601829E+00 0.94122004839E+00 0.99075264507E+00 0.10353386096E+01
 0.10718981102E+01 0.10978429443E+01 0.11113578087E+01 0.11114180325E+01 0.10979161599E+01
 0.10718697655E+01 0.10353002474E+01 0.99080346225E+00 0.94125671379E+00 0.88970868809E+00
 0.83908783837E+00 0.79176009751E+00 0.74937191855E+00 0.71300803296E+00 0.68325988487E+00
 0.66016284722E+00 0.64335492368E+00 0.63243557999E+00 0.62712063389E+00 0.62717651628E+00
 0.63250047150E+00 0.64332219300E+00 0.66012857262E+00 0.63094001871E+00 0.66018597769E+00
 0.69618407504E+00 0.73856142442E+00 0.78644360930E+00 0.83824821894E+00 0.89178758122E+00
 0.94446801285E+00 0.99335822875E+00 0.10353496675E+01 0.10675953105E+01 0.10879210454E+01
 0.10949302153E+01 0.10880362351E+01 0.10676585030E+01 0.10353135086E+01 0.99333562469E+00
 0.94448591126E+00 0.89175083070E+00 0.83815681883E+00 0.78640121429E+00 0.73855797533E+00
 0.69610822401E+00 0.66005874782E+00 0.63089843080E+00 0.60860870997E+00 0.59293795632E+00
 0.58367335951E+00 0.58065118310E+00 0.58372826025E+00 0.59293569088E+00 0.60856282314E+00
 0.58084575589E+00 0.60862389530E+00 0.64338035330E+00 0.68472421222E+00 0.73192357897E+00
 0.78366739135E+00 0.83801154262E+00 0.89254138442E+00 0.94449283207E+00 0.99083807332E+00
 0.10285893889E+01 0.10552549369E+01 0.10690946254E+01 0.10691469078E+01 0.10553199806E+01
 0.10285546999E+01 0.99075344807E+00 0.94444836239E+00 0.89250724730E+00 0.83794358151E+00
 0.78362802173E+00 0.73195056171E+00 0.68471942591E+00 0.64327438162E+00 0.60851344955E+00
 0.58082770155E+00 0.56021957290E+00 0.54658289024E+00 0.53983353754E+00 0.53986902353E+00
 0.54662404733E+00 0.56020880439E+00 0.53468855881E+00 0.56023984382E+00 0.59298615263E+00
 0.63251376766E+00 0.67815350391E+00 0.72880988285E+00 0.78281180583E+00 0.83797570870E+00
 0.89174619186E+00 0.94126964356E+00 0.98356234567E+00 0.10158994993E+01 0.10361931621E+01
 0.10431301650E+01 0.10362088161E+01 0.10158530806E+01 0.98345781396E+00 0.94119206706E+00
 0.89170407606E+00 0.83790404002E+00 0.78272589249E+00 0.72878989547E+00 0.67817918053E+00
 0.63248215027E+00 0.59289351646E+00 0.56018108326E+00 0.53467884004E+00 0.51646966331E+00
 0.50557862662E+00 0.50199052476E+00 0.50563716543E+00 0.51650463281E+00 0.49374327948E+00
 0.51649604640E+00 0.54663414521E+00 0.58374815409E+00 0.62719884136E+00 0.67603556809E+00
 0.72883340274E+00 0.78365507707E+00 0.83816404593E+00 0.88972290436E+00 0.93548383111E+00
 0.97264461393E+00 0.99883242625E+00 0.10123700901E+01 0.10123674550E+01 0.99879730317E+00
 0.97256693973E+00 0.93542441987E+00 0.88970840957E+00 0.83812111389E+00 0.78353612515E+00
 0.72871136082E+00 0.67598433165E+00 0.62717813376E+00 0.58369862258E+00 0.54658613414E+00
 0.51648778194E+00 0.49373035129E+00 0.47849351301E+00 0.47088760650E+00 0.47092293300E+00
 0.47854720627E+00 0.45898390890E+00 0.47852463104E+00 0.50561816387E+00 0.53987363806E+00
 0.58068296120E+00 0.62719619021E+00 0.67819489392E+00 0.73198558395E+00 0.78644360868E+00
 0.83912759998E+00 0.88736801997E+00 0.92842158003E+00 0.95977118035E+00 0.97943579299E+00
 0.98614510152E+00 0.97943618221E+00 0.95974434228E+00 0.92838689856E+00 0.88736619844E+00
 0.83912385975E+00 0.78636091253E+00 0.73183366917E+00 0.67806347571E+00 0.62712212276E+00
 0.58062732324E+00 0.53982480826E+00 0.50560690099E+00 0.47853617804E+00 0.45896522352E+00
 0.44714530741E+00 0.44321695258E+00 0.44718512529E+00 0.43115877108E+00 0.44717582379E+00
 0.47091728124E+00 0.50200449786E+00 0.53986137397E+00 0.58371072680E+00 0.63249986071E+00
 0.68477395382E+00 0.73863598453E+00 0.79182524391E+00 0.84182364438E+00 0.88598180092E+00
 0.92174312666E+00 0.94693077000E+00 0.95996331018E+00 0.95997842718E+00 0.94694269866E+00
 0.92171294074E+00 0.88593067114E+00 0.84177997642E+00 0.79176425039E+00 0.73853241226E+00
 0.68466111385E+00 0.63241706678E+00 0.58364354637E+00 0.53978937480E+00 0.50195394846E+00
 0.47090968902E+00 0.44717768093E+00 0.43113887912E+00 0.42306628706E+00 0.42308196619E+00
 0.41084588018E+00 0.42308478417E+00 0.44323457697E+00 0.47093118859E+00 0.50563144218E+00
 0.54661062494E+00 0.59293148434E+00 0.64334451979E+00 0.69619735400E+00 0.74943940284E+00
 0.80070271288E+00 0.84742137953E+00 0.88702154063E+00 0.91718500356E+00 0.93608783589E+00
 0.94254392565E+00 0.93610544930E+00 0.91715750066E+00 0.88692027779E+00 0.84728814377E+00
 0.80058540101E+00 0.74934904117E+00 0.69613377059E+00 0.64330714205E+00 0.59289560325E+00
 0.54654501921E+00 0.50554854663E+00 0.47087440602E+00 0.44321406682E+00 0.42307244899E+00
 0.41083129975E+00 0.40673271127E+00 0.39847467846E+00 0.40673456556E+00 0.42308002835E+00
 0.44718497539E+00 0.47855555830E+00 0.51652432211E+00 0.56023508763E+00 0.60858330533E+00
 0.66013008078E+00 0.71305465530E+00 0.76517683755E+00 0.81404172237E+00 0.85707771374E+00
 0.89183759675E+00 0.91626173839E+00 0.92887082768E+00 0.92887357757E+00 0.91624152596E+00
 0.89175199971E+00 0.85693316830E+00 0.81388777148E+00 0.76505584099E+00 0.71297972517E+00
 0.66009322102E+00 0.60855930807E+00 0.56019174647E+00 0.51645301006E+00 0.47848260502E+00
 0.44713777425E+00 0.42305667418E+00 0.40672044960E+00 0.39846858667E+00 0.40495075374E+00
 0.40925891795E+00 0.42210237832E+00 0.44325988617E+00 0.47235542533E+00 0.50884080590E+00
 0.55196130485E+00 0.60070023609E+00 0.65371221930E+00 0.70926980169E+00 0.76524924803E+00
 0.81917554187E+00 0.86834590391E+00 0.91004142012E+00 0.94179912162E+00 0.96167578252E+00
 0.96843790463E+00 0.96166149706E+00 0.94176399284E+00 0.90997964656E+00 0.86825846929E+00
 0.81907055912E+00 0.76513948331E+00 0.70916884398E+00 0.65362855152E+00 0.60063339222E+00
 0.55190569801E+00 0.50879341279E+00 0.47231777399E+00 0.44323357014E+00 0.42208626492E+00
 0.40925117942E+00 0.40925629487E+00 0.40925767280E+00 0.41838660176E+00 0.43650462455E+00
 0.46332398623E+00 0.49840400153E+00 0.54110907692E+00 0.59052747949E+00 0.64539562492E+00
 0.70405029262E+00 0.76440072822E+00 0.82394085826E+00 0.87984796586E+00 0.92917476913E+00
 0.96909679752E+00 0.99718405748E+00 0.10116689423E+01 0.10116455487E+01 0.99714005604E+00
 0.96907166590E+00 0.92916535355E+00 0.87981664412E+00 0.82386285385E+00 0.76428119622E+00
 0.70391101652E+00 0.64526749410E+00 0.59044155168E+00 0.54107179747E+00 0.49838975424E+00
 0.46330702474E+00 0.43648587484E+00 0.41837735222E+00 0.42209970062E+00 0.41728104134E+00
 0.42210068004E+00 0.43651129731E+00 0.46032206596E+00 0.49320216805E+00 0.53466011628E+00
 0.58394612397E+00 0.63993762574E+00 0.70107847029E+00 0.76534823639E+00 0.83024107992E+00
 0.89282574846E+00 0.94993713535E+00 0.99843204392E+00 0.10354392759E+01 0.10586283965E+01
 0.10664972805E+01 0.10585635019E+01 0.10353739813E+01 0.99840023844E+00 0.94990734257E+00
 0.89276432378E+00 0.83015099089E+00 0.76523941945E+00 0.70095675055E+00 0.63983104941E+00
 0.58388912321E+00 0.53464286192E+00 0.49318226071E+00 0.46028862476E+00 0.43649031173E+00
 0.44324759314E+00 0.43317873465E+00 0.43317069433E+00 0.44325258597E+00 0.46334354079E+00
 0.49322527295E+00 0.53254581977E+00 0.58074144397E+00 0.63688408641E+00 0.69958121464E+00
 0.76694660036E+00 0.83655917293E+00 0.90544981051E+00 0.97025202137E+00 0.10274987923E+01
 0.10739094708E+01 0.11066325319E+01 0.11235346904E+01 0.11234983808E+01 0.11065582187E+01
 0.10738386541E+01 0.10274148038E+01 0.97013646204E+00 0.90534224129E+00 0.83649681618E+00
 0.76690108786E+00 0.69951629177E+00 0.63682028189E+00 0.58070475232E+00 0.53251038466E+00
 0.49316755914E+00 0.46329676013E+00 0.47231777415E+00 0.45665940007E+00 0.45141657546E+00
 0.45663545575E+00 0.47233577305E+00 0.49842583061E+00 0.53469164671E+00 0.58075914449E+00
 0.63593074188E+00 0.69902249218E+00 0.76832328910E+00 0.84157708686E+00 0.91591068408E+00
 0.98786841170E+00 0.10536879814E+01 0.11096708821E+01 0.11524680741E+01 0.11793417609E+01
 0.11884924502E+01 0.11793165281E+01 0.11524417935E+01 0.11096160605E+01 0.10535600014E+01
 0.98771371514E+00 0.91582789750E+00 0.84157109575E+00 0.76830840204E+00 0.69896551607E+00
 0.63587623759E+00 0.58071862708E+00 0.53462942605E+00 0.49835674101E+00 0.50876778845E+00
 0.48727286041E+00 0.47652187641E+00 0.47649347094E+00 0.48724577414E+00 0.50880662629E+00
 0.54110220712E+00 0.58394543601E+00 0.63690159627E+00 0.69905572086E+00 0.76890559795E+00
 0.84438414058E+00 0.92281202719E+00 0.10008173847E+01 0.10744828680E+01 0.11397384175E+01
 0.11927435277E+01 0.12301718076E+01 0.12495372185E+01 0.12495366650E+01 0.12301938886E+01
 0.11927839156E+01 0.11397155027E+01 0.10743657008E+01 0.10007023701E+01 0.92277558487E+00
 0.84436506855E+00 0.76883045208E+00 0.69896778951E+00 0.63686128667E+00 0.58391542609E+00
 0.54104105729E+00 0.55185868788E+00 0.52439702221E+00 0.50799622558E+00 0.50251467455E+00
 0.50795232300E+00 0.52440347558E+00 0.55191635509E+00 0.59046483624E+00 0.63988033870E+00
 0.69959253168E+00 0.76839450742E+00 0.84443518653E+00 0.92525555473E+00 0.10076907656E+01
 0.10878584917E+01 0.11614651343E+01 0.12242525820E+01 0.12723412772E+01 0.13025562543E+01
 0.13128404315E+01 0.13025397686E+01 0.12723799533E+01 0.12243206971E+01 0.11614560565E+01
 0.10877720425E+01 0.10076243696E+01 0.92521474603E+00 0.84433876524E+00 0.76826139209E+00
 0.69953099373E+00 0.63989149521E+00 0.59044598816E+00 0.60059169047E+00 0.56722065767E+00
 0.54517596694E+00 0.53420838521E+00 0.53417813256E+00 0.54516143427E+00 0.56729012995E+00
 0.60065153778E+00 0.64528306044E+00 0.70097811420E+00 0.76693894640E+00 0.84162953085E+00
 0.92284717061E+00 0.10076976690E+01 0.10924866504E+01 0.11728771153E+01 0.12443383605E+01
 0.13025540578E+01 0.13437274693E+01 0.13650082680E+01 0.13649523884E+01 0.13436556135E+01
 0.13025746147E+01 0.12443791755E+01 0.11728367854E+01 0.10924158479E+01 0.10076653923E+01
 0.92279030404E+00 0.84150149624E+00 0.76684536389E+00 0.70099777371E+00 0.64531295344E+00
 0.65362855097E+00 0.61468257649E+00 0.58720875950E+00 0.57091273648E+00 0.56547952778E+00
 0.57087253150E+00 0.58725706199E+00 0.61480301676E+00 0.65366734172E+00 0.70392864144E+00
 0.76524029004E+00 0.83650500070E+00 0.91586769844E+00 0.10007751392E+01 0.10878527991E+01
 0.11728943564E+01 0.12512460338E+01 0.13183030664E+01 0.13698168310E+01 0.14022296703E+01
 0.14132213292E+01 0.14021026928E+01 0.13697428977E+01 0.13183229877E+01 0.12512255365E+01
 0.11728081977E+01 0.10878190531E+01 0.10007982840E+01 0.91582789678E+00 0.83641250366E+00
 0.76522598427E+00 0.70397619055E+00 0.70922643962E+00 0.66537989834E+00 0.63297340280E+00
 0.61174524753E+00 0.60122677295E+00 0.60117866029E+00 0.61171598931E+00 0.63307825084E+00
 0.66550042702E+00 0.70923336263E+00 0.76431980677E+00 0.83016241798E+00 0.90534725773E+00
 0.98773493244E+00 0.10744023060E+01 0.11614810172E+01 0.12443669729E+01 0.13182819648E+01
 0.13786942333E+01 0.14215548730E+01 0.14437484105E+01 0.14436803586E+01 0.14214714172E+01
 0.13787213093E+01 0.13183102939E+01 0.12442812351E+01 0.11613991398E+01 0.10744489220E+01
 0.98779920856E+00 0.90530002484E+00 0.83009407377E+00 0.76433367724E+00 0.76522827140E+00
 0.71751468440E+00 0.68099759166E+00 0.65550575367E+00 0.64049670427E+00 0.63548444388E+00
 0.64040650042E+00 0.65551509337E+00 0.68112197188E+00 0.71758044333E+00 0.76521763579E+00
 0.82392640489E+00 0.89279726543E+00 0.97014024052E+00 0.10535493134E+01 0.11397008267E+01
 0.12242990948E+01 0.13025425666E+01 0.13697147513E+01 0.14214746484E+01 0.14541389706E+01
 0.14652605043E+01 0.14540927744E+01 0.14215283349E+01 0.13698316853E+01 0.13025335909E+01
 0.12241848988E+01 0.11396892004E+01 0.10536487897E+01 0.97015116296E+00 0.89268897134E+00
 0.82386729134E+00 0.81913522466E+00 0.76892032883E+00 0.72944946647E+00 0.70064479781E+00
 0.68199096846E+00 0.67280468029E+00 0.67273838385E+00 0.68192576889E+00 0.70071991455E+00
 0.72954477495E+00 0.76890930509E+00 0.81913809196E+00 0.87988038798E+00 0.94993855772E+00
 0.10274042362E+01 0.11095839048E+01 0.11927616108E+01 0.12723827984E+01 0.13436735504E+01
 0.14021140663E+01 0.14436707463E+01 0.14652309040E+01 0.14651951608E+01 0.14436719333E+01
 0.14022376479E+01 0.13437619791E+01 0.12723146087E+01 0.11926922692E+01 0.11096528283E+01
 0.10274654454E+01 0.94984199841E+00 0.87975573780E+00 0.86825846999E+00 0.81715931790E+00
 0.77618870767E+00 0.74531113992E+00 0.72408342600E+00 0.71174105155E+00 0.70764674846E+00
 0.71167652599E+00 0.72412173606E+00 0.74543797881E+00 0.77621967363E+00 0.81710082606E+00
 0.86829647503E+00 0.92919906489E+00 0.99840627455E+00 0.10738128366E+01 0.11524102096E+01
 0.12301922489E+01 0.13025778787E+01 0.13649993394E+01 0.14132292118E+01 0.14436949738E+01
 0.14540501817E+01 0.14436019217E+01 0.14132213305E+01 0.13650829833E+01 0.13025867779E+01
 0.12301306197E+01 0.11524417940E+01 0.10739135243E+01 0.99838680198E+00 0.92907134491E+00
 0.90992425037E+00 0.85968805097E+00 0.81885831308E+00 0.78740168735E+00 0.76490387476E+00
 0.75060046423E+00 0.74365393575E+00 0.74362315387E+00 0.75061007616E+00 0.76503965919E+00
 0.78752235330E+00 0.81883768973E+00 0.85964635612E+00 0.90998928464E+00 0.96907134442E+00
 0.10353553010E+01 0.11065185472E+01 0.11792723076E+01 0.12495147525E+01 0.13128516135E+01
 0.13650328364E+01 0.14022354852E+01 0.14215307225E+01 0.14214418793E+01 0.14021039846E+01
 0.13650233212E+01 0.13128965066E+01 0.12495068926E+01 0.11792890297E+01 0.11066289958E+01
 0.10354300560E+01 0.96901115327E+00 0.94170217405E+00 0.89408617611E+00 0.85506573302E+00
 0.82464453406E+00 0.80237510420E+00 0.78748126698E+00 0.77901367989E+00 0.77624394841E+00
 0.77898707408E+00 0.78754770841E+00 0.80252056097E+00 0.82472195193E+00 0.85505519664E+00
 0.89410720241E+00 0.94176255468E+00 0.99712431408E+00 0.10585310936E+01 0.11234384990E+01
 0.11884092077E+01 0.12494586772E+01 0.13025160607E+01 0.13437388951E+01 0.13698653582E+01
 0.13787511498E+01 0.13697550117E+01 0.13436864467E+01 0.13025710630E+01 0.12495109149E+01
 0.11884306316E+01 0.11235130829E+01 0.10586387563E+01 0.99714449229E+00 0.96163350226E+00
 0.91829926565E+00 0.88265399369E+00 0.85481796649E+00 0.83431872877E+00 0.82031837295E+00
 0.81177881151E+00 0.80774865301E+00 0.80771688537E+00 0.81175001491E+00 0.82037095970E+00
 0.83440900993E+00 0.85487501615E+00 0.88269936291E+00 0.91836326706E+00 0.96166091228E+00
 0.10116271461E+01 0.10664597863E+01 0.11234658146E+01 0.11792435476E+01 0.12300753610E+01
 0.12722901395E+01 0.13025698834E+01 0.13183661984E+01 0.13183453612E+01 0.13025677646E+01
 0.12723685930E+01 0.12301728199E+01 0.11792858683E+01 0.11234926732E+01 0.10665245966E+01
 0.10116773011E+01 0.96843790449E+00 0.93082735510E+00 0.89994361994E+00 0.87605141581E+00
 0.85872238004E+00 0.84705467943E+00 0.83990351195E+00 0.83614300262E+00 0.83496428305E+00
 0.83610036855E+00 0.83987000497E+00 0.84706618998E+00 0.85877147072E+00 0.87612007096E+00
 0.90001524736E+00 0.93087081197E+00 0.96843033945E+00 0.10116421365E+01 0.10585929125E+01
 0.11065869478E+01 0.11524102088E+01 0.11926839408E+01 0.12242103068E+01 0.12443223817E+01
 0.12512460342E+01 0.12443670578E+01 0.12242995921E+01 0.11927821564E+01 0.11524680738E+01
 0.11066055045E+01 0.10586149609E+01 0.10116768312E+01 0.96166661874E+00 0.93085497977E+00
 0.90585861707E+00 0.88702882825E+00 0.87402416770E+00 0.86593298835E+00 0.86150114689E+00
 0.85944204122E+00 0.85871433371E+00 0.85871874947E+00 0.85943857931E+00 0.86148091575E+00
 0.86593259137E+00 0.87407297053E+00 0.88709470393E+00 0.90589100806E+00 0.93084864381E+00
 0.96164343922E+00 0.99713415699E+00 0.10354015341E+01 0.10738925660E+01 0.11096590905E+01
 0.11397106684E+01 0.11614142566E+01 0.11728149031E+01 0.11728459354E+01 0.11614749770E+01
 0.11397548782E+01 0.11096896161E+01 0.10739340148E+01 0.10354491182E+01 0.99716977799E+00
 0.94176213628E+00 0.91835265032E+00 0.89999595622E+00 0.88705513009E+00 0.87924813351E+00
 0.87570643705E+00 0.87510477131E+00 0.87598808908E+00 0.87711609523E+00 0.87763498090E+00
 0.87718060388E+00 0.87602513793E+00 0.87509684962E+00 0.87572678664E+00 0.87930837028E+00
 0.88708486119E+00 0.89997826197E+00 0.91833595131E+00 0.94173772122E+00 0.96901526927E+00
 0.99836928998E+00 0.10274695808E+01 0.10536750868E+01 0.10744592226E+01 0.10878158132E+01