   6   6   0   0
  0.2185851E+02  0.3190316E-09  0.3190316E-09  0.1487900E-08  0.5000000E-15
  1.000000000000000E-004
  CAR 
 unknown system                          
      8.32480041    -12.92947886  301      3.30347693      1.00000000
    -12.929  0.0000E+00  0.0000E+00
    -12.859  0.0000E+00  0.0000E+00
    -12.788  0.0000E+00  0.0000E+00
    -12.717  0.0000E+00  0.0000E+00
    -12.646  0.0000E+00  0.0000E+00
    -12.575  0.0000E+00  0.0000E+00
    -12.504  0.0000E+00  0.0000E+00
    -12.434  0.0000E+00  0.0000E+00
    -12.363  0.0000E+00  0.0000E+00
    -12.292  0.0000E+00  0.0000E+00
    -12.221  0.0000E+00  0.0000E+00
    -12.150  0.0000E+00  0.0000E+00
    -12.079  0.0000E+00  0.0000E+00
    -12.008  0.0000E+00  0.0000E+00
    -11.938  0.0000E+00  0.0000E+00
    -11.867  0.0000E+00  0.0000E+00
    -11.796  0.0000E+00  0.0000E+00
    -11.725  0.0000E+00  0.0000E+00
    -11.654  0.0000E+00  0.0000E+00
    -11.583  0.0000E+00  0.0000E+00
    -11.513  0.0000E+00  0.0000E+00
    -11.442  0.0000E+00  0.0000E+00
    -11.371  0.0000E+00  0.0000E+00
    -11.300  0.0000E+00  0.0000E+00
    -11.229  0.0000E+00  0.0000E+00
    -11.158  0.0000E+00  0.0000E+00
    -11.087  0.0000E+00  0.0000E+00
    -11.017  0.0000E+00  0.0000E+00
    -10.946  0.0000E+00  0.0000E+00
    -10.875  0.3690E+00  0.8449E-02
    -10.804  0.9482E+00  0.5511E-01
    -10.733  0.1527E+01  0.1428E+00
    -10.662  0.9949E+00  0.2299E+00
    -10.592  0.1061E+01  0.3027E+00
    -10.521  0.1126E+01  0.3802E+00
    -10.450  0.1192E+01  0.4623E+00
    -10.379  0.1258E+01  0.5491E+00
    -10.308  0.1319E+01  0.6405E+00
    -10.237  0.1331E+01  0.7344E+00
    -10.166  0.1343E+01  0.8291E+00
    -10.096  0.1380E+01  0.9252E+00
    -10.025  0.1435E+01  0.1025E+01
     -9.954  0.1490E+01  0.1129E+01
     -9.883  0.1545E+01  0.1236E+01
     -9.812  0.1600E+01  0.1347E+01
     -9.741  0.1655E+01  0.1463E+01
     -9.670  0.3340E+01  0.1616E+01
     -9.600  0.4392E+01  0.1929E+01
     -9.529  0.4591E+01  0.2238E+01
     -9.458  0.5088E+01  0.2580E+01
     -9.387  0.5556E+01  0.2959E+01
     -9.316  0.5978E+01  0.3366E+01
     -9.245  0.6542E+01  0.3810E+01
     -9.175  0.7105E+01  0.4293E+01
     -9.104  0.8481E+01  0.5080E+01
     -9.033  0.8338E+01  0.5675E+01
     -8.962  0.8677E+01  0.6277E+01
     -8.891  0.8353E+01  0.6918E+01
     -8.820  0.6272E+01  0.7614E+01
     -8.749  0.0000E+00  0.8000E+01
     -8.679  0.0000E+00  0.8000E+01
     -8.608  0.0000E+00  0.8000E+01
     -8.537  0.0000E+00  0.8000E+01
     -8.466  0.0000E+00  0.8000E+01
     -8.395  0.0000E+00  0.8000E+01
     -8.324  0.0000E+00  0.8000E+01
     -8.254  0.0000E+00  0.8000E+01
     -8.183  0.0000E+00  0.8000E+01
     -8.112  0.0000E+00  0.8000E+01
     -8.041  0.0000E+00  0.8000E+01
     -7.970  0.0000E+00  0.8000E+01
     -7.899  0.0000E+00  0.8000E+01
     -7.828  0.0000E+00  0.8000E+01
     -7.758  0.0000E+00  0.8000E+01
     -7.687  0.0000E+00  0.8000E+01
     -7.616  0.0000E+00  0.8000E+01
     -7.545  0.0000E+00  0.8000E+01
     -7.474  0.0000E+00  0.8000E+01
     -7.403  0.0000E+00  0.8000E+01
     -7.333  0.0000E+00  0.8000E+01
     -7.262  0.0000E+00  0.8000E+01
     -7.191  0.0000E+00  0.8000E+01
     -7.120  0.0000E+00  0.8000E+01
     -7.049  0.0000E+00  0.8000E+01
     -6.978  0.0000E+00  0.8000E+01
     -6.907  0.0000E+00  0.8000E+01
     -6.837  0.0000E+00  0.8000E+01
     -6.766  0.0000E+00  0.8000E+01
     -6.695  0.0000E+00  0.8000E+01
     -6.624  0.0000E+00  0.8000E+01
     -6.553  0.0000E+00  0.8000E+01
     -6.482  0.0000E+00  0.8000E+01
     -6.411  0.0000E+00  0.8000E+01
     -6.341  0.0000E+00  0.8000E+01
     -6.270  0.0000E+00  0.8000E+01
     -6.199  0.0000E+00  0.8000E+01
     -6.128  0.0000E+00  0.8000E+01
     -6.057  0.0000E+00  0.8000E+01
     -5.986  0.0000E+00  0.8000E+01
     -5.916  0.0000E+00  0.8000E+01
     -5.845  0.0000E+00  0.8000E+01
     -5.774  0.0000E+00  0.8000E+01
     -5.703  0.0000E+00  0.8000E+01
     -5.632  0.0000E+00  0.8000E+01
     -5.561  0.0000E+00  0.8000E+01
     -5.490  0.0000E+00  0.8000E+01
     -5.420  0.0000E+00  0.8000E+01
     -5.349  0.0000E+00  0.8000E+01
     -5.278  0.0000E+00  0.8000E+01
     -5.207  0.0000E+00  0.8000E+01
     -5.136  0.0000E+00  0.8000E+01
     -5.065  0.0000E+00  0.8000E+01
     -4.995  0.0000E+00  0.8000E+01
     -4.924  0.0000E+00  0.8000E+01
     -4.853  0.0000E+00  0.8000E+01
     -4.782  0.0000E+00  0.8000E+01
     -4.711  0.0000E+00  0.8000E+01
     -4.640  0.0000E+00  0.8000E+01
     -4.569  0.0000E+00  0.8000E+01
     -4.499  0.0000E+00  0.8000E+01
     -4.428  0.0000E+00  0.8000E+01
     -4.357  0.0000E+00  0.8000E+01
     -4.286  0.0000E+00  0.8000E+01
     -4.215  0.0000E+00  0.8000E+01
     -4.144  0.0000E+00  0.8000E+01
     -4.074  0.0000E+00  0.8000E+01
     -4.003  0.0000E+00  0.8000E+01
     -3.932  0.0000E+00  0.8000E+01
     -3.861  0.0000E+00  0.8000E+01
     -3.790  0.0000E+00  0.8000E+01
     -3.719  0.0000E+00  0.8000E+01
     -3.648  0.0000E+00  0.8000E+01
     -3.578  0.0000E+00  0.8000E+01
     -3.507  0.0000E+00  0.8000E+01
     -3.436  0.0000E+00  0.8000E+01
     -3.365  0.0000E+00  0.8000E+01
     -3.294  0.0000E+00  0.8000E+01
     -3.223  0.0000E+00  0.8000E+01
     -3.153  0.0000E+00  0.8000E+01
     -3.082  0.0000E+00  0.8000E+01
     -3.011  0.0000E+00  0.8000E+01
     -2.940  0.0000E+00  0.8000E+01
     -2.869  0.0000E+00  0.8000E+01
     -2.798  0.0000E+00  0.8000E+01
     -2.727  0.0000E+00  0.8000E+01
     -2.657  0.0000E+00  0.8000E+01
     -2.586  0.1743E+00  0.8002E+01
     -2.515  0.1054E+01  0.8045E+01
     -2.444  0.2057E+01  0.8154E+01
     -2.373  0.3254E+01  0.8341E+01
     -2.302  0.5082E+01  0.8625E+01
     -2.231  0.5534E+01  0.9002E+01
     -2.161  0.5984E+01  0.9410E+01
     -2.090  0.7533E+01  0.9979E+01
     -2.019  0.6418E+01  0.1047E+02
     -1.948  0.7347E+01  0.1090E+02
     -1.877  0.8229E+01  0.1163E+02
     -1.806  0.2083E+01  0.1197E+02
     -1.736  0.9336E+01  0.1255E+02
     -1.665  0.4782E+01  0.1304E+02
     -1.594  0.2683E+01  0.1326E+02
     -1.523  0.2455E+01  0.1344E+02
     -1.452  0.2228E+01  0.1361E+02
     -1.381  0.2001E+01  0.1376E+02
     -1.310  0.1774E+01  0.1389E+02
     -1.240  0.1670E+01  0.1401E+02
     -1.169  0.1678E+01  0.1413E+02
     -1.098  0.1685E+01  0.1425E+02
     -1.027  0.1693E+01  0.1437E+02
     -0.956  0.1761E+01  0.1449E+02
     -0.885  0.5182E+01  0.1471E+02
     -0.815  0.1068E+02  0.1526E+02
     -0.744  0.1210E+02  0.1615E+02
     -0.673  0.9842E+01  0.1686E+02
     -0.602  0.8214E+01  0.1753E+02
     -0.531  0.5010E+01  0.1800E+02
     -0.460  0.2640E+01  0.1825E+02
     -0.389  0.2374E+01  0.1843E+02
     -0.319  0.2202E+01  0.1859E+02
     -0.248  0.2042E+01  0.1874E+02
     -0.177  0.1883E+01  0.1888E+02
     -0.106  0.1372E+02  0.1909E+02
     -0.035  0.2133E+02  0.2048E+02
      0.036  0.7612E+01  0.2129E+02
      0.106  0.5221E+01  0.2175E+02
      0.177  0.5942E+01  0.2223E+02
      0.248  0.3787E+01  0.2256E+02
      0.319  0.3601E+01  0.2282E+02
      0.390  0.3415E+01  0.2307E+02
      0.461  0.3364E+01  0.2331E+02
      0.532  0.5051E+01  0.2360E+02
      0.602  0.5034E+01  0.2397E+02
      0.673  0.4259E+01  0.2432E+02
      0.744  0.2736E+01  0.2456E+02
      0.815  0.1794E+01  0.2470E+02
      0.886  0.1750E+01  0.2483E+02
      0.957  0.1714E+01  0.2495E+02
      1.027  0.1684E+01  0.2507E+02
      1.098  0.4116E+01  0.2523E+02
      1.169  0.1044E+02  0.2573E+02
      1.240  0.1815E+02  0.2678E+02
      1.311  0.1382E+02  0.2795E+02
      1.382  0.5185E+01  0.2861E+02
      1.453  0.3162E+01  0.2889E+02
      1.523  0.2956E+01  0.2910E+02
      1.594  0.2877E+01  0.2931E+02
      1.665  0.3004E+01  0.2951E+02
      1.736  0.3569E+01  0.2974E+02
      1.807  0.6325E+01  0.3007E+02
      1.878  0.8563E+01  0.3062E+02
      1.949  0.4895E+01  0.3111E+02
      2.019  0.4456E+01  0.3145E+02
      2.090  0.3202E+01  0.3173E+02
      2.161  0.1672E+01  0.3190E+02
      2.232  0.2454E+01  0.3202E+02
      2.303  0.5906E+01  0.3230E+02
      2.374  0.7876E+01  0.3288E+02
      2.444  0.7223E+01  0.3341E+02
      2.515  0.6686E+01  0.3391E+02
      2.586  0.6157E+01  0.3436E+02
      2.657  0.4335E+01  0.3475E+02
      2.728  0.3811E+01  0.3504E+02
      2.799  0.3287E+01  0.3529E+02
      2.870  0.2986E+01  0.3551E+02
      2.940  0.2459E+01  0.3570E+02
      3.011  0.9705E+00  0.3588E+02
      3.082  0.8467E+00  0.3594E+02
      3.153  0.3296E+00  0.3598E+02
      3.224  0.8694E-01  0.3600E+02
      3.295  0.2442E-03  0.3600E+02
      3.365  0.0000E+00  0.3600E+02
      3.436  0.0000E+00  0.3600E+02
      3.507  0.0000E+00  0.3600E+02
      3.578  0.0000E+00  0.3600E+02
      3.649  0.0000E+00  0.3600E+02
      3.720  0.0000E+00  0.3600E+02
      3.791  0.0000E+00  0.3600E+02
      3.861  0.0000E+00  0.3600E+02
      3.932  0.0000E+00  0.3600E+02
      4.003  0.0000E+00  0.3600E+02
      4.074  0.0000E+00  0.3600E+02
      4.145  0.0000E+00  0.3600E+02
      4.216  0.0000E+00  0.3600E+02
      4.286  0.0000E+00  0.3600E+02
      4.357  0.0000E+00  0.3600E+02
      4.428  0.0000E+00  0.3600E+02
      4.499  0.0000E+00  0.3600E+02
      4.570  0.0000E+00  0.3600E+02
      4.641  0.0000E+00  0.3600E+02
      4.712  0.0000E+00  0.3600E+02
      4.782  0.0000E+00  0.3600E+02
      4.853  0.0000E+00  0.3600E+02
      4.924  0.6877E+01  0.3600E+02
      4.995  0.1535E+01  0.3615E+02
      5.066  0.4914E+01  0.3637E+02
      5.137  0.8522E+01  0.3685E+02
      5.208  0.1274E+02  0.3760E+02
      5.278  0.2666E+02  0.3867E+02
      5.349  0.2323E+01  0.3945E+02
      5.420  0.1686E+01  0.3959E+02
      5.491  0.7458E+01  0.3986E+02
      5.562  0.7368E+01  0.4058E+02
      5.633  0.7993E+01  0.4113E+02
      5.703  0.7886E+01  0.4169E+02
      5.774  0.7546E+01  0.4223E+02
      5.845  0.6417E+01  0.4285E+02
      5.916  0.3646E+01  0.4316E+02
      5.987  0.2915E+01  0.4339E+02
      6.058  0.2330E+01  0.4358E+02
      6.129  0.1806E+01  0.4372E+02
      6.199  0.1711E+01  0.4386E+02
      6.270  0.1264E+01  0.4395E+02
      6.341  0.0000E+00  0.4400E+02
      6.412  0.0000E+00  0.4400E+02
      6.483  0.0000E+00  0.4400E+02
      6.554  0.0000E+00  0.4400E+02
      6.624  0.0000E+00  0.4400E+02
      6.695  0.0000E+00  0.4400E+02
      6.766  0.0000E+00  0.4400E+02
      6.837  0.0000E+00  0.4400E+02
      6.908  0.0000E+00  0.4400E+02
      6.979  0.0000E+00  0.4400E+02
      7.050  0.0000E+00  0.4400E+02
      7.120  0.0000E+00  0.4400E+02
      7.191  0.0000E+00  0.4400E+02
      7.262  0.0000E+00  0.4400E+02
      7.333  0.0000E+00  0.4400E+02
      7.404  0.0000E+00  0.4400E+02
      7.475  0.0000E+00  0.4400E+02
      7.545  0.0000E+00  0.4400E+02
      7.616  0.0000E+00  0.4400E+02
      7.687  0.0000E+00  0.4400E+02
      7.758  0.0000E+00  0.4400E+02
      7.829  0.0000E+00  0.4400E+02
      7.900  0.0000E+00  0.4400E+02
      7.971  0.0000E+00  0.4400E+02
      8.041  0.0000E+00  0.4400E+02
      8.112  0.0000E+00  0.4400E+02
      8.183  0.0000E+00  0.4400E+02
      8.254  0.0000E+00  0.4400E+02
      8.325  0.0000E+00  0.4400E+02
