 vasp.5.4.4.18Apr17-6-g9f103f2a35 (build Jun 30 2017 11:15:00) complex          
  
 executed on    STALLO_VASP_5.4.4 date 2019.11.08  11:36:34
 running on    4 total cores
 distrk:  each k-point on    4 cores,    1 groups
 distr:  one band on NCORES_PER_BAND=   2 cores,    2 groups


--------------------------------------------------------------------------------------------------------


 INCAR:
 POTCAR:   PAW_PBE Mo 08Apr2002                   
 POTCAR:    PAW_PBE S 17Jan2003                   
 POTCAR:   PAW_PBE Mo 08Apr2002                   
   VRHFIN =Mo: 4p5s4d                                                           
   LEXCH  = PE                                                                  
   EATOM  =   217.5180 eV,   15.9871 Ry                                         
                                                                                
   TITEL  = PAW_PBE Mo 08Apr2002                                                
   LULTRA =        F    use ultrasoft PP ?                                      
   IUNSCR =        1    unscreen: 0-lin 1-nonlin 2-no                           
   RPACOR =    2.200    partial core radius                                     
   POMASS =   95.940; ZVAL   =    6.000    mass and valenz                      
   RCORE  =    2.750    outmost cutoff radius                                   
   RWIGS  =    2.750; RWIGS  =    1.455    wigner-seitz radius (au A)           
   ENMAX  =  224.584; ENMIN  =  168.438 eV                                      
   RCLOC  =    2.111    cutoff for local pot                                    
   LCOR   =        T    correct aug charges                                     
   LPAW   =        T    paw PP                                                  
   EAUG   =  345.278                                                            
   DEXC   =    -.088                                                            
   RMAX   =    3.077    core radius for proj-oper                               
   RAUG   =    1.300    factor for augmentation sphere                          
   RDEP   =    2.815    radius for radial grids                                 
   QCUT   =   -4.063; QGAM   =    8.126    optimization parameters              
                                                                                
   Description                                                                  
     l     E      TYP  RCUT    TYP  RCUT                                        
     2   .000     23  2.500                                                     
     2   .000     23  2.500                                                     
     0   .000     23  2.600                                                     
     0  1.000     23  2.600                                                     
     1   .400     23  2.750                                                     
     1  2.000     23  2.750                                                     
     3   .000      7   .000                                                     
  local pseudopotential read in
  partial core-charges read in
  atomic valenz-charges read in
  non local Contribution for L=           2  read in
    real space projection operators read in
  non local Contribution for L=           2  read in
    real space projection operators read in
  non local Contribution for L=           0  read in
    real space projection operators read in
  non local Contribution for L=           0  read in
    real space projection operators read in
  non local Contribution for L=           1  read in
    real space projection operators read in
  non local Contribution for L=           1  read in
    real space projection operators read in
    PAW grid and wavefunctions read in
 
   number of l-projection  operators is LMAX  =           6
   number of lm-projection operators is LMMAX =          18
 
 POTCAR:    PAW_PBE S 17Jan2003                   
   VRHFIN =S : s2p4                                                             
   LEXCH  = PE                                                                  
   EATOM  =   276.8230 eV,   20.3459 Ry                                         
                                                                                
   TITEL  = PAW_PBE S 17Jan2003                                                 
   LULTRA =        F    use ultrasoft PP ?                                      
   IUNSCR =        1    unscreen: 0-lin 1-nonlin 2-no                           
   RPACOR =    1.500    partial core radius                                     
   POMASS =   32.066; ZVAL   =    6.000    mass and valenz                      
   RCORE  =    1.900    outmost cutoff radius                                   
   RWIGS  =    2.200; RWIGS  =    1.164    wigner-seitz radius (au A)           
   ENMAX  =  280.000; ENMIN  =  194.016 eV                                      
   ICORE  =        2    local potential                                         
   LCOR   =        T    correct aug charges                                     
   LPAW   =        T    paw PP                                                  
   EAUG   =  335.092                                                            
   DEXC   =     .000                                                            
   RMAX   =    2.867    core radius for proj-oper                               
   RAUG   =    1.300    factor for augmentation sphere                          
   RDEP   =    1.954    radius for radial grids                                 
   QCUT   =   -4.360; QGAM   =    8.721    optimization parameters              
                                                                                
   Description                                                                  
     l     E      TYP  RCUT    TYP  RCUT                                        
     0   .000     23  1.900                                                     
     0   .000     23  1.900                                                     
     1   .000     23  1.900                                                     
     1   .000     23  1.900                                                     
     2   .000     23  1.900                                                     
  local pseudopotential read in
  partial core-charges read in
  atomic valenz-charges read in
  non local Contribution for L=           0  read in
    real space projection operators read in
  non local Contribution for L=           0  read in
    real space projection operators read in
  non local Contribution for L=           1  read in
    real space projection operators read in
  non local Contribution for L=           1  read in
    real space projection operators read in
    PAW grid and wavefunctions read in
 
   number of l-projection  operators is LMAX  =           4
   number of lm-projection operators is LMMAX =           8
 
 PAW_PBE Mo 08Apr2002                   :
 energy of atom  1       EATOM= -217.5180
 kinetic energy error for atom=    0.0025 (will be added to EATOM!!)
  PAW_PBE S 17Jan2003                   :
 energy of atom  2       EATOM= -276.8230
 kinetic energy error for atom=    0.0046 (will be added to EATOM!!)
 
 
 POSCAR: MoS2_mp-2815_computed                   
  positions in direct lattice
  No initial velocities read in
 exchange correlation table for  LEXCH =        8
   RHO(1)=    0.500       N(1)  =     2000
   RHO(2)=  100.500       N(2)  =     4000
 


--------------------------------------------------------------------------------------------------------


 ion  position               nearest neighbor table
   1  0.333  0.667  0.250-   5 2.42   4 2.42   4 2.42   5 2.42   5 2.42   4 2.42
   2  0.667  0.333  0.750-   6 2.42   3 2.42   3 2.42   6 2.42   6 2.42   3 2.42
   3  0.333  0.667  0.855-   2 2.42   2 2.42   2 2.42
   4  0.667  0.333  0.145-   1 2.42   1 2.42   1 2.42
   5  0.667  0.333  0.355-   1 2.42   1 2.42   1 2.42
   6  0.333  0.667  0.645-   2 2.42   2 2.42   2 2.42
 
  LATTYP: Found a hexagonal cell.
 ALAT       =     3.1903157300
 C/A-ratio  =     4.6638030713
  
  Lattice vectors:
  
 A1 = (   3.1903157300,   0.0000000000,   0.0000000000)
 A2 = (  -1.5951578650,   2.7628944683,   0.0000000000)
 A3 = (   0.0000000000,   0.0000000000,  14.8790043000)


Analysis of symmetry for initial positions (statically):
=====================================================================
 Subroutine PRICEL returns:
 Original cell was already a primitive cell.
 

 Routine SETGRP: Setting up the symmetry group for a 
 hexagonal supercell.


 Subroutine GETGRP returns: Found 24 space group operations
 (whereof 12 operations were pure point group operations)
 out of a pool of 24 trial point group operations.


The static configuration has the point symmetry D_3d.
 The point group associated with its full space group is D_6h.


Analysis of symmetry for dynamics (positions and initial velocities):
=====================================================================
 Subroutine PRICEL returns:
 Original cell was already a primitive cell.
 

 Routine SETGRP: Setting up the symmetry group for a 
 hexagonal supercell.


 Subroutine GETGRP returns: Found 24 space group operations
 (whereof 12 operations were pure point group operations)
 out of a pool of 24 trial point group operations.


The dynamic configuration has the point symmetry D_3d.
 The point group associated with its full space group is D_6h.


 Subroutine INISYM returns: Found 24 space group operations
 (whereof 12 operations are pure point group operations),
 and found     1 'primitive' translations

 
 
 KPOINTS: k-density: 4.0                          

Automatic generation of k-mesh.
Space group operators:
 irot       det(A)        alpha          n_x          n_y          n_z        tau_x        tau_y        tau_z
    1     1.000000     0.000001     1.000000     0.000000     0.000000     0.000000     0.000000     0.000000
    2    -1.000000     0.000001     1.000000     0.000000     0.000000     0.000000     0.000000     0.000000
    3     1.000000   120.000000     0.000000     0.000000    -1.000000     0.000000     0.000000     0.000000
    4    -1.000000   120.000000     0.000000     0.000000    -1.000000     0.000000     0.000000     0.000000
    5     1.000000   120.000000     0.000000     0.000000     1.000000     0.000000     0.000000     0.000000
    6    -1.000000   120.000000     0.000000     0.000000     1.000000     0.000000     0.000000     0.000000
    7     1.000000   179.999999     1.000000    -0.000000     0.000000     0.000000     0.000000     0.000000
    8    -1.000000   179.999999     1.000000    -0.000000     0.000000     0.000000     0.000000     0.000000
    9     1.000000   180.000000     0.500000    -0.866025     0.000000     0.000000     0.000000     0.000000
   10    -1.000000   180.000000     0.500000    -0.866025     0.000000     0.000000     0.000000     0.000000
   11     1.000000   180.000000    -0.500000    -0.866025     0.000000     0.000000     0.000000     0.000000
   12    -1.000000   180.000000    -0.500000    -0.866025     0.000000     0.000000     0.000000     0.000000
   13     1.000000    60.000000     0.000000     0.000000    -1.000000     0.000001     0.000000     0.500000
   14    -1.000000    60.000000     0.000000     0.000000    -1.000000     0.000001     0.000000     0.500000
   15     1.000000   180.000000     0.000000     0.000000     1.000000     0.000000     0.000000     0.500000
   16    -1.000000   180.000000     0.000000     0.000000     1.000000     0.000000     0.000000     0.500000
   17     1.000000    60.000000     0.000000     0.000000     1.000000     0.000000     0.000000     0.500000
   18    -1.000000    60.000000     0.000000     0.000000     1.000000     0.000000     0.000000     0.500000
   19     1.000000   179.999999     0.866025    -0.500000     0.000000     0.000000     0.000000     0.500000
   20    -1.000000   179.999999     0.866025    -0.500000     0.000000     0.000000     0.000000     0.500000
   21     1.000000   180.000000     0.000000     1.000000     0.000000     0.000001     0.000000     0.500000
   22    -1.000000   180.000000     0.000000     1.000000     0.000000     0.000001     0.000000     0.500000
   23     1.000000   179.999999     0.866025     0.500000     0.000000     0.000000     0.000000     0.500000
   24    -1.000000   179.999999     0.866025     0.500000     0.000000     0.000000     0.000000     0.500000
 
 Subroutine IBZKPT returns following result:
 ===========================================
 
 Found     20 irreducible k-points:
 
 Following reciprocal coordinates:
            Coordinates               Weight
  0.000000  0.000000  0.000000      1.000000
  0.125000 -0.000000  0.000000      6.000000
  0.250000 -0.000000  0.000000      6.000000
  0.375000 -0.000000  0.000000      6.000000
  0.500000 -0.000000  0.000000      3.000000
  0.125000  0.125000  0.000000      6.000000
  0.250000  0.125000  0.000000     12.000000
  0.375000  0.125000  0.000000     12.000000
  0.250000  0.250000  0.000000      6.000000
  0.375000  0.250000  0.000000      6.000000
  0.000000  0.000000  0.500000      1.000000
  0.125000 -0.000000  0.500000      6.000000
  0.250000 -0.000000  0.500000      6.000000
  0.375000 -0.000000  0.500000      6.000000
  0.500000 -0.000000  0.500000      3.000000
  0.125000  0.125000  0.500000      6.000000
  0.250000  0.125000  0.500000     12.000000
  0.375000  0.125000  0.500000     12.000000
  0.250000  0.250000  0.500000      6.000000
  0.375000  0.250000  0.500000      6.000000
 
 Following cartesian coordinates:
            Coordinates               Weight
  0.000000  0.000000  0.000000      1.000000
  0.039181  0.022621  0.000000      6.000000
  0.078362  0.045242  0.000000      6.000000
  0.117543  0.067864  0.000000      6.000000
  0.156724  0.090485  0.000000      3.000000
  0.039181  0.067864  0.000000      6.000000
  0.078362  0.090485  0.000000     12.000000
  0.117543  0.113106  0.000000     12.000000
  0.078362  0.135727  0.000000      6.000000
  0.117543  0.158348  0.000000      6.000000
  0.000000  0.000000  0.033604      1.000000
  0.039181  0.022621  0.033604      6.000000
  0.078362  0.045242  0.033604      6.000000
  0.117543  0.067864  0.033604      6.000000
  0.156724  0.090485  0.033604      3.000000
  0.039181  0.067864  0.033604      6.000000
  0.078362  0.090485  0.033604     12.000000
  0.117543  0.113106  0.033604     12.000000
  0.078362  0.135727  0.033604      6.000000
  0.117543  0.158348  0.033604      6.000000
 
 TETIRR: Found    136 inequivalent tetrahedra from      768


--------------------------------------------------------------------------------------------------------




 Dimension of arrays:
   k-points           NKPTS =     20   k-points in BZ     NKDIM =     20   number of bands    NBANDS=     22
   number of dos      NEDOS =    301   number of ions     NIONS =      6
   non local maximal  LDIM  =      6   non local SUM 2l+1 LMDIM =     18
   total plane-waves  NPLWV =  20480
   max r-space proj   IRMAX =      1   max aug-charges    IRDMAX=  10224
   dimension x,y,z NGX =    16 NGY =   16 NGZ =   80
   dimension x,y,z NGXF=    32 NGYF=   32 NGZF=  160
   support grid    NGXF=    32 NGYF=   32 NGZF=  160
   ions per type =               2   4
   NGX,Y,Z   is equivalent  to a cutoff of   8.34,  8.34,  8.94 a.u.
   NGXF,Y,Z  is equivalent  to a cutoff of  16.68, 16.68, 17.88 a.u.

 SYSTEM =  unknown system                          
 POSCAR =  MoS2_mp-2815_computed                   

 Startparameter for this run:
   NWRITE =      2    write-flag & timer
   PREC   = normal    normal or accurate (medium, high low for compatibility)
   ISTART =      0    job   : 0-new  1-cont  2-samecut
   ICHARG =      2    charge: 1-file 2-atom 10-const
   ISPIN  =      1    spin polarized calculation?
   LNONCOLLINEAR =      F non collinear calculations
   LSORBIT =      F    spin-orbit coupling
   INIWAV =      1    electr: 0-lowe 1-rand  2-diag
   LASPH  =      F    aspherical Exc in radial PAW
   METAGGA=      F    non-selfconsistent MetaGGA calc.

 Electronic Relaxation 1
   ENCUT  =  400.0 eV  29.40 Ry    5.42 a.u.   5.20  5.20 24.26*2*pi/ulx,y,z
   ENINI  =  400.0     initial cutoff
   ENAUG  =  345.3 eV  augmentation charge cutoff
   NELM   =     60;   NELMIN=  4; NELMDL=  0     # of ELM steps 
   EDIFF  = 0.1E-04   stopping-criterion for ELM
   LREAL  =      F    real-space projection
   NLSPLINE    = F    spline interpolate recip. space projectors
   LCOMPAT=      F    compatible to vasp.4.4
   GGA_COMPAT  = T    GGA compatible to vasp.4.4-vasp.4.6
   LMAXPAW     = -100 max onsite density
   LMAXMIX     =    2 max onsite mixed and CHGCAR
   VOSKOWN=      0    Vosko Wilk Nusair interpolation
   ROPT   =    0.00000   0.00000
 Ionic relaxation
   EDIFFG = 0.1E-03   stopping-criterion for IOM
   NSW    =      0    number of steps for IOM
   NBLOCK =      1;   KBLOCK =      1    inner block; outer block 
   IBRION =     -1    ionic relax: 0-MD 1-quasi-New 2-CG
   NFREE  =      0    steps in history (QN), initial steepest desc. (CG)
   ISIF   =      2    stress and relaxation
   IWAVPR =     10    prediction:  0-non 1-charg 2-wave 3-comb
   ISYM   =      2    0-nonsym 1-usesym 2-fastsym
   LCORR  =      T    Harris-Foulkes like correction to forces

   POTIM  = 0.5000    time-step for ionic-motion
   TEIN   =    0.0    initial temperature
   TEBEG  =    0.0;   TEEND  =   0.0 temperature during run
   SMASS  =  -3.00    Nose mass-parameter (am)
   estimated Nose-frequenzy (Omega)   =  0.10E-29 period in steps =****** mass=  -0.233E-27a.u.
   SCALEE = 1.0000    scale energy and forces
   NPACO  =    256;   APACO  = 16.0  distance and # of slots for P.C.
   PSTRESS=    0.0 pullay stress

  Mass of Ions in am
   POMASS =  95.94 32.07
  Ionic Valenz
   ZVAL   =   6.00  6.00
  Atomic Wigner-Seitz radii
   RWIGS  =  -1.00 -1.00
  virtual crystal weights 
   VCA    =   1.00  1.00
   NELECT =      36.0000    total number of electrons
   NUPDOWN=      -1.0000    fix difference up-down

 DOS related values:
   EMIN   =  10.00;   EMAX   =-10.00  energy-range for DOS
   EFERMI =   0.00
   ISMEAR =    -5;   SIGMA  =   0.20  broadening in eV -4-tet -1-fermi 0-gaus

 Electronic relaxation 2 (details)
   IALGO  =     68    algorithm
   LDIAG  =      T    sub-space diagonalisation (order eigenvalues)
   LSUBROT=      F    optimize rotation matrix (better conditioning)
   TURBO    =      0    0=normal 1=particle mesh
   IRESTART =      0    0=no restart 2=restart with 2 vectors
   NREBOOT  =      0    no. of reboots
   NMIN     =      0    reboot dimension
   EREF     =   0.00    reference energy to select bands
   IMIX   =      4    mixing-type and parameters
     AMIX     =   0.40;   BMIX     =  1.00
     AMIX_MAG =   1.60;   BMIX_MAG =  1.00
     AMIN     =   0.10
     WC   =   100.;   INIMIX=   1;  MIXPRE=   1;  MAXMIX= -45

 Intra band minimization:
   WEIMIN = 0.0000     energy-eigenvalue tresh-hold
   EBREAK =  0.11E-06  absolut break condition
   DEPER  =   0.30     relativ break condition  

   TIME   =   0.40     timestep for ELM

  volume/ion in A,a.u.               =      21.86       147.51
  Fermi-wavevector in a.u.,A,eV,Ry     =   1.063943  2.010561 15.401453  1.131975
  Thomas-Fermi vector in A             =   2.199445
 
 Write flags
   LWAVE        =      F    write WAVECAR
   LDOWNSAMPLE  =      F    k-point downsampling of WAVECAR
   LCHARG       =      T    write CHGCAR
   LVTOT        =      F    write LOCPOT, total local potential
   LVHAR        =      F    write LOCPOT, Hartree potential only
   LELF         =      F    write electronic localiz. function (ELF)
   LORBIT       =      0    0 simple, 1 ext, 2 COOP (PROOUT), +10 PAW based schemes


 Dipole corrections
   LMONO  =      F    monopole corrections only (constant potential shift)
   LDIPOL =      F    correct potential (dipole corrections)
   IDIPOL =      0    1-x, 2-y, 3-z, 4-all directions 
   EPSILON=  1.0000000 bulk dielectric constant

 Exchange correlation treatment:
   GGA     =    --    GGA type
   LEXCH   =     8    internal setting for exchange type
   VOSKOWN=      0    Vosko Wilk Nusair interpolation
   LHFCALC =     F    Hartree Fock is set to
   LHFONE  =     F    Hartree Fock one center treatment
   AEXX    =    0.0000 exact exchange contribution

 Linear response parameters
   LEPSILON=     F    determine dielectric tensor
   LRPA    =     F    only Hartree local field effects (RPA)
   LNABLA  =     F    use nabla operator in PAW spheres
   LVEL    =     F    velocity operator in full k-point grid
   LINTERFAST=   F  fast interpolation
   KINTER  =     0    interpolate to denser k-point grid
   CSHIFT  =0.1000    complex shift for real part using Kramers Kronig
   OMEGAMAX=  -1.0    maximum frequency
   DEG_THRESHOLD= 0.2000000E-02 threshold for treating states as degnerate
   RTIME   =   -0.100 relaxation time in fs
  (WPLASMAI=    0.000 imaginary part of plasma frequency in eV, 0.658/RTIME)
   DFIELD  = 0.0000000 0.0000000 0.0000000 field for delta impulse in time
 
 Orbital magnetization related:
   ORBITALMAG=     F  switch on orbital magnetization
   LCHIMAG   =     F  perturbation theory with respect to B field
   DQ        =  0.001000  dq finite difference perturbation B field
   LLRAUG    =     F  two centre corrections for induced B field



--------------------------------------------------------------------------------------------------------


 Static calculation
 charge density and potential will be updated during run
 non-spin polarized calculation
 RMM-DIIS sequential band-by-band and
  variant of blocked Davidson during initial phase
 perform sub-space diagonalisation
    before iterative eigenvector-optimisation
 modified Broyden-mixing scheme, WC =      100.0
 initial mixing is a Kerker type mixing with AMIX =  0.4000 and BMIX =      1.0000
 Hartree-type preconditioning will be used
 using additional bands            4
 reciprocal scheme for non local part
 use partial core corrections
 calculate Harris-corrections to forces 
   (improved forces if not selfconsistent)
 use gradient corrections 
 use of overlap-Matrix (Vanderbilt PP)
 Fermi weights with tetrahedron method with Bloechl corrections


--------------------------------------------------------------------------------------------------------


  energy-cutoff  :      400.00
  volume of cell :      131.15
      direct lattice vectors                 reciprocal lattice vectors
     3.190315730  0.000000000  0.000000000     0.313448600  0.180969634  0.000000000
    -1.595157865  2.762894468  0.000000000     0.000000000  0.361939267  0.000000000
     0.000000000  0.000000000 14.879004300     0.000000000  0.000000000  0.067208798

  length of vectors
     3.190315730  3.190315730 14.879004300     0.361939267  0.361939267  0.067208798


 
 k-points in units of 2pi/SCALE and weight: k-density: 4.0                          
   0.00000000  0.00000000  0.00000000       0.008
   0.03918108  0.02262120  0.00000000       0.047
   0.07836215  0.04524241  0.00000000       0.047
   0.11754323  0.06786361  0.00000000       0.047
   0.15672430  0.09048482  0.00000000       0.023
   0.03918108  0.06786361  0.00000000       0.047
   0.07836215  0.09048482  0.00000000       0.094
   0.11754323  0.11310602  0.00000000       0.094
   0.07836215  0.13572723  0.00000000       0.047
   0.11754323  0.15834843  0.00000000       0.047
   0.00000000  0.00000000  0.03360440       0.008
   0.03918108  0.02262120  0.03360440       0.047
   0.07836215  0.04524241  0.03360440       0.047
   0.11754323  0.06786361  0.03360440       0.047
   0.15672430  0.09048482  0.03360440       0.023
   0.03918108  0.06786361  0.03360440       0.047
   0.07836215  0.09048482  0.03360440       0.094
   0.11754323  0.11310602  0.03360440       0.094
   0.07836215  0.13572723  0.03360440       0.047
   0.11754323  0.15834843  0.03360440       0.047
 
 k-points in reciprocal lattice and weights: k-density: 4.0                          
   0.00000000  0.00000000  0.00000000       0.008
   0.12500000 -0.00000000  0.00000000       0.047
   0.25000000 -0.00000000  0.00000000       0.047
   0.37500000 -0.00000000  0.00000000       0.047
   0.50000000 -0.00000000  0.00000000       0.023
   0.12500000  0.12500000  0.00000000       0.047
   0.25000000  0.12500000  0.00000000       0.094
   0.37500000  0.12500000  0.00000000       0.094
   0.25000000  0.25000000  0.00000000       0.047
   0.37500000  0.25000000  0.00000000       0.047
   0.00000000  0.00000000  0.50000000       0.008
   0.12500000 -0.00000000  0.50000000       0.047
   0.25000000 -0.00000000  0.50000000       0.047
   0.37500000 -0.00000000  0.50000000       0.047
   0.50000000 -0.00000000  0.50000000       0.023
   0.12500000  0.12500000  0.50000000       0.047
   0.25000000  0.12500000  0.50000000       0.094
   0.37500000  0.12500000  0.50000000       0.094
   0.25000000  0.25000000  0.50000000       0.047
   0.37500000  0.25000000  0.50000000       0.047
 
 position of ions in fractional coordinates (direct lattice) 
   0.33333300  0.66666700  0.25000000
   0.66666700  0.33333300  0.75000000
   0.33333300  0.66666700  0.85517400
   0.66666700  0.33333300  0.14482600
   0.66666600  0.33333300  0.35517400
   0.33333400  0.66666700  0.64482600
 
 position of ions in cartesian coordinates  (Angst):
  -0.00000160  1.84193057  3.71975108
   1.59515946  0.92096390 11.15925323
  -0.00000160  1.84193057 12.72413762
   1.59515946  0.92096390  2.15486668
   1.59515627  0.92096390  5.28463547
   0.00000160  1.84193057  9.59436883
 


--------------------------------------------------------------------------------------------------------


 k-point  1 :   0.0000 0.0000 0.0000  plane waves:    2377
 k-point  2 :   0.1250-0.0000 0.0000  plane waves:    2371
 k-point  3 :   0.2500-0.0000 0.0000  plane waves:    2371
 k-point  4 :   0.3750-0.0000 0.0000  plane waves:    2401
 k-point  5 :   0.5000-0.0000 0.0000  plane waves:    2404
 k-point  6 :   0.1250 0.1250 0.0000  plane waves:    2371
 k-point  7 :   0.2500 0.1250 0.0000  plane waves:    2381
 k-point  8 :   0.3750 0.1250 0.0000  plane waves:    2393
 k-point  9 :   0.2500 0.2500 0.0000  plane waves:    2369
 k-point 10 :   0.3750 0.2500 0.0000  plane waves:    2369
 k-point 11 :   0.0000 0.0000 0.5000  plane waves:    2388
 k-point 12 :   0.1250-0.0000 0.5000  plane waves:    2372
 k-point 13 :   0.2500-0.0000 0.5000  plane waves:    2374
 k-point 14 :   0.3750-0.0000 0.5000  plane waves:    2394
 k-point 15 :   0.5000-0.0000 0.5000  plane waves:    2384
 k-point 16 :   0.1250 0.1250 0.5000  plane waves:    2384
 k-point 17 :   0.2500 0.1250 0.5000  plane waves:    2382
 k-point 18 :   0.3750 0.1250 0.5000  plane waves:    2384
 k-point 19 :   0.2500 0.2500 0.5000  plane waves:    2388
 k-point 20 :   0.3750 0.2500 0.5000  plane waves:    2376

 maximum and minimum number of plane-waves per node :      1216     1167

 maximum number of plane-waves:      2404
 maximum index in each direction: 
   IXMAX=    5   IYMAX=    5   IZMAX=   24
   IXMIN=   -5   IYMIN=   -5   IZMIN=  -24


 parallel 3D FFT for wavefunctions:
    minimum data exchange during FFTs selected (reduces bandwidth)
 parallel 3D FFT for charge:
    minimum data exchange during FFTs selected (reduces bandwidth)


 total amount of memory used by VASP MPI-rank0    45993. kBytes
=======================================================================

   base      :      30000. kBytes
   nonl-proj :       7120. kBytes
   fftplans  :       1702. kBytes
   grid      :       2725. kBytes
   one-center:         46. kBytes
   wavefun   :       4400. kBytes
 
     INWAV:  cpu time    0.0000: real time    0.0000
 Broyden mixing: mesh for mixing (old mesh)
   NGX = 11   NGY = 11   NGZ = 49
  (NGX  = 32   NGY  = 32   NGZ  =160)
  gives a total of   5929 points

 initial charge density was supplied:
 charge density of overlapping atoms calculated
 number of electron      36.0000000 magnetization 
 keeping initial charge density in first step


--------------------------------------------------------------------------------------------------------


 Maximum index for augmentation-charges         2405 (set IRDMAX)


--------------------------------------------------------------------------------------------------------


 First call to EWALD:  gamma=   0.349
 Maximum number of real-space cells 5x 5x 1
 Maximum number of reciprocal cells 2x 2x 7

    FEWALD:  cpu time    0.0020: real time    0.0015


--------------------------------------- Iteration      1(   1)  ---------------------------------------


    POTLOK:  cpu time    0.0240: real time    0.0512
    SETDIJ:  cpu time    0.0040: real time    0.0046
     EDDAV:  cpu time    0.3279: real time    0.3324
 BZINTS: Fermi energy: 14.058820; 36.000000 electrons
         Band energy: 152.105543;  BLOECHL correction: -0.335065
       DOS:  cpu time    0.0050: real time    0.0048
    --------------------------------------------
      LOOP:  cpu time    0.3609: real time    0.3929

 eigenvalue-minimisations  :   880
 total energy-change (2. order) : 0.1853424E+03  (-0.1389228E+04)
 number of electron      36.0000000 magnetization 
 augmentation part       36.0000000 magnetization 

 Free energy of the ion-electron system (eV)
  ---------------------------------------------------
  alpha Z        PSCENC =        90.42577596
  Ewald energy   TEWEN  =     -1146.88905665
  -Hartree energ DENC   =      -535.10238362
  -exchange      EXHF   =         0.00000000
  -V(xc)+E(xc)   XCENC  =       -72.59368032
  PAW double counting   =       813.77302396     -658.68146406
  entropy T*S    EENTRO =         0.00000000
  eigenvalues    EBANDS =       152.10554270
  atomic energy  EATOM  =      1542.30469024
  Solvation  Ediel_sol  =         0.00000000
  ---------------------------------------------------
  free energy    TOTEN  =       185.34244822 eV

  energy without entropy =      185.34244822  energy(sigma->0) =      185.34244822


--------------------------------------------------------------------------------------------------------




--------------------------------------- Iteration      1(   2)  ---------------------------------------


     EDDAV:  cpu time    0.4009: real time    0.4023
 BZINTS: Fermi energy:  4.816537; 36.000000 electrons
         Band energy: -63.748491;  BLOECHL correction:  0.000000
       DOS:  cpu time    0.0010: real time    0.0012
    --------------------------------------------
      LOOP:  cpu time    0.4019: real time    0.4035

 eigenvalue-minimisations  :  1164
 total energy-change (2. order) :-0.2158540E+03  (-0.2101875E+03)
 number of electron      36.0000000 magnetization 
 augmentation part       36.0000000 magnetization 

 Free energy of the ion-electron system (eV)
  ---------------------------------------------------
  alpha Z        PSCENC =        90.42577596
  Ewald energy   TEWEN  =     -1146.88905665
  -Hartree energ DENC   =      -535.10238362
  -exchange      EXHF   =         0.00000000
  -V(xc)+E(xc)   XCENC  =       -72.59368032
  PAW double counting   =       813.77302396     -658.68146406
  entropy T*S    EENTRO =         0.00000000
  eigenvalues    EBANDS =       -63.74849085
  atomic energy  EATOM  =      1542.30469024
  Solvation  Ediel_sol  =         0.00000000
  ---------------------------------------------------
  free energy    TOTEN  =       -30.51158533 eV

  energy without entropy =      -30.51158533  energy(sigma->0) =      -30.51158533


--------------------------------------------------------------------------------------------------------




--------------------------------------- Iteration      1(   3)  ---------------------------------------


     EDDAV:  cpu time    0.3999: real time    0.4011
 BZINTS: Fermi energy:  3.920127; 36.000000 electrons
         Band energy: -79.496391;  BLOECHL correction:  0.000000
       DOS:  cpu time    0.0010: real time    0.0012
    --------------------------------------------
      LOOP:  cpu time    0.4009: real time    0.4023

 eigenvalue-minimisations  :  1140
 total energy-change (2. order) :-0.1574790E+02  (-0.1567781E+02)
 number of electron      36.0000000 magnetization 
 augmentation part       36.0000000 magnetization 

 Free energy of the ion-electron system (eV)
  ---------------------------------------------------
  alpha Z        PSCENC =        90.42577596
  Ewald energy   TEWEN  =     -1146.88905665
  -Hartree energ DENC   =      -535.10238362
  -exchange      EXHF   =         0.00000000
  -V(xc)+E(xc)   XCENC  =       -72.59368032
  PAW double counting   =       813.77302396     -658.68146406
  entropy T*S    EENTRO =         0.00000000
  eigenvalues    EBANDS =       -79.49639096
  atomic energy  EATOM  =      1542.30469024
  Solvation  Ediel_sol  =         0.00000000
  ---------------------------------------------------
  free energy    TOTEN  =       -46.25948544 eV

  energy without entropy =      -46.25948544  energy(sigma->0) =      -46.25948544


--------------------------------------------------------------------------------------------------------




--------------------------------------- Iteration      1(   4)  ---------------------------------------


     EDDAV:  cpu time    0.4289: real time    0.4313
 BZINTS: Fermi energy:  3.909914; 36.000000 electrons
         Band energy: -80.045030;  BLOECHL correction:  0.000000
       DOS:  cpu time    0.0010: real time    0.0013
    --------------------------------------------
      LOOP:  cpu time    0.4299: real time    0.4326

 eigenvalue-minimisations  :  1246
 total energy-change (2. order) :-0.5486388E+00  (-0.5474140E+00)
 number of electron      36.0000000 magnetization 
 augmentation part       36.0000000 magnetization 

 Free energy of the ion-electron system (eV)
  ---------------------------------------------------
  alpha Z        PSCENC =        90.42577596
  Ewald energy   TEWEN  =     -1146.88905665
  -Hartree energ DENC   =      -535.10238362
  -exchange      EXHF   =         0.00000000
  -V(xc)+E(xc)   XCENC  =       -72.59368032
  PAW double counting   =       813.77302396     -658.68146406
  entropy T*S    EENTRO =         0.00000000
  eigenvalues    EBANDS =       -80.04502980
  atomic energy  EATOM  =      1542.30469024
  Solvation  Ediel_sol  =         0.00000000
  ---------------------------------------------------
  free energy    TOTEN  =       -46.80812428 eV

  energy without entropy =      -46.80812428  energy(sigma->0) =      -46.80812428


--------------------------------------------------------------------------------------------------------




--------------------------------------- Iteration      1(   5)  ---------------------------------------


     EDDAV:  cpu time    0.3969: real time    0.3975
 BZINTS: Fermi energy:  3.874767; 36.000000 electrons
         Band energy: -80.055846;  BLOECHL correction:  0.000000
       DOS:  cpu time    0.0010: real time    0.0013
    CHARGE:  cpu time    0.0250: real time    0.0251
    MIXING:  cpu time    0.0010: real time    0.0010
    --------------------------------------------
      LOOP:  cpu time    0.4239: real time    0.4249

 eigenvalue-minimisations  :  1142
 total energy-change (2. order) :-0.1081649E-01  (-0.1081314E-01)
 number of electron      36.0000017 magnetization 
 augmentation part       -1.8904669 magnetization 

 Broyden mixing:
  rms(total) = 0.97297E+00    rms(broyden)= 0.97295E+00
  rms(prec ) = 0.12176E+01
  weight for this iteration     100.00

 Free energy of the ion-electron system (eV)
  ---------------------------------------------------
  alpha Z        PSCENC =        90.42577596
  Ewald energy   TEWEN  =     -1146.88905665
  -Hartree energ DENC   =      -535.10238362
  -exchange      EXHF   =         0.00000000
  -V(xc)+E(xc)   XCENC  =       -72.59368032
  PAW double counting   =       813.77302396     -658.68146406
  entropy T*S    EENTRO =         0.00000000
  eigenvalues    EBANDS =       -80.05584628
  atomic energy  EATOM  =      1542.30469024
  Solvation  Ediel_sol  =         0.00000000
  ---------------------------------------------------
  free energy    TOTEN  =       -46.81894076 eV

  energy without entropy =      -46.81894076  energy(sigma->0) =      -46.81894076


--------------------------------------------------------------------------------------------------------




--------------------------------------- Iteration      1(   6)  ---------------------------------------


    POTLOK:  cpu time    0.0210: real time    0.0211
    SETDIJ:  cpu time    0.0040: real time    0.0039
    EDDIAG:  cpu time    0.0650: real time    0.0659
  RMM-DIIS:  cpu time    0.2650: real time    0.2649
    ORTHCH:  cpu time    0.0080: real time    0.0087
 BZINTS: Fermi energy:  2.892279; 36.000000 electrons
         Band energy: -79.159692;  BLOECHL correction:  0.000000
       DOS:  cpu time    0.0020: real time    0.0013
    CHARGE:  cpu time    0.0250: real time    0.0249
    MIXING:  cpu time    0.0010: real time    0.0008
    --------------------------------------------
      LOOP:  cpu time    0.3909: real time    0.3914

 eigenvalue-minimisations  :   980
 total energy-change (2. order) : 0.2382842E+01  (-0.2437134E+01)
 number of electron      36.0000014 magnetization 
 augmentation part       -0.8593589 magnetization 

 Broyden mixing:
  rms(total) = 0.33819E+00    rms(broyden)= 0.33818E+00
  rms(prec ) = 0.49488E+00
  weight for this iteration     100.00

 eigenvalues of (default mixing * dielectric matrix)
  average eigenvalue GAMMA=   0.8725
  0.8725

 Free energy of the ion-electron system (eV)
  ---------------------------------------------------
  alpha Z        PSCENC =        90.42577596
  Ewald energy   TEWEN  =     -1146.88905665
  -Hartree energ DENC   =      -533.60311229
  -exchange      EXHF   =         0.00000000
  -V(xc)+E(xc)   XCENC  =       -70.82776145
  PAW double counting   =       847.76753727     -694.45447947
  entropy T*S    EENTRO =         0.00000000
  eigenvalues    EBANDS =       -79.15969240
  atomic energy  EATOM  =      1542.30469024
  Solvation  Ediel_sol  =         0.00000000
  ---------------------------------------------------
  free energy    TOTEN  =       -44.43609880 eV

  energy without entropy =      -44.43609880  energy(sigma->0) =      -44.43609880


--------------------------------------------------------------------------------------------------------




--------------------------------------- Iteration      1(   7)  ---------------------------------------


    POTLOK:  cpu time    0.0200: real time    0.0226
    SETDIJ:  cpu time    0.0040: real time    0.0039
    EDDIAG:  cpu time    0.0660: real time    0.0655
  RMM-DIIS:  cpu time    0.2610: real time    0.2615
    ORTHCH:  cpu time    0.0090: real time    0.0087
 BZINTS: Fermi energy:  3.212596; 36.000000 electrons
         Band energy: -73.399203;  BLOECHL correction:  0.000000
       DOS:  cpu time    0.0010: real time    0.0012
    CHARGE:  cpu time    0.0240: real time    0.0247
    MIXING:  cpu time    0.0020: real time    0.0008
    --------------------------------------------
      LOOP:  cpu time    0.3869: real time    0.3888

 eigenvalue-minimisations  :   966
 total energy-change (2. order) : 0.7417255E+00  (-0.1977474E+00)
 number of electron      36.0000015 magnetization 
 augmentation part       -1.1139524 magnetization 

 Broyden mixing:
  rms(total) = 0.17921E+00    rms(broyden)= 0.17921E+00
  rms(prec ) = 0.21377E+00
  weight for this iteration     100.00

 eigenvalues of (default mixing * dielectric matrix)
  average eigenvalue GAMMA=   1.4103
  0.7562  2.0645

 Free energy of the ion-electron system (eV)
  ---------------------------------------------------
  alpha Z        PSCENC =        90.42577596
  Ewald energy   TEWEN  =     -1146.88905665
  -Hartree energ DENC   =      -537.93284320
  -exchange      EXHF   =         0.00000000
  -V(xc)+E(xc)   XCENC  =       -71.02220112
  PAW double counting   =       881.11671465     -728.29824983
  entropy T*S    EENTRO =         0.00000000
  eigenvalues    EBANDS =       -73.39920335
  atomic energy  EATOM  =      1542.30469024
  Solvation  Ediel_sol  =         0.00000000
  ---------------------------------------------------
  free energy    TOTEN  =       -43.69437331 eV

  energy without entropy =      -43.69437331  energy(sigma->0) =      -43.69437331


--------------------------------------------------------------------------------------------------------




--------------------------------------- Iteration      1(   8)  ---------------------------------------


    POTLOK:  cpu time    0.0200: real time    0.0209
    SETDIJ:  cpu time    0.0040: real time    0.0039
    EDDIAG:  cpu time    0.0650: real time    0.0653
  RMM-DIIS:  cpu time    0.2740: real time    0.2732
    ORTHCH:  cpu time    0.0080: real time    0.0087
 BZINTS: Fermi energy:  3.375498; 36.000000 electrons
         Band energy: -68.470967;  BLOECHL correction:  0.000000
       DOS:  cpu time    0.0010: real time    0.0013
    CHARGE:  cpu time    0.0250: real time    0.0247
    MIXING:  cpu time    0.0010: real time    0.0015
    --------------------------------------------
      LOOP:  cpu time    0.3979: real time    0.3995

 eigenvalue-minimisations  :  1007
 total energy-change (2. order) : 0.6506313E-01  (-0.8781448E-01)
 number of electron      36.0000015 magnetization 
 augmentation part       -1.1686667 magnetization 

 Broyden mixing:
  rms(total) = 0.81962E-01    rms(broyden)= 0.81960E-01
  rms(prec ) = 0.10937E+00
  weight for this iteration     100.00

 eigenvalues of (default mixing * dielectric matrix)
  average eigenvalue GAMMA=   1.4914
  2.1103  1.5512  0.8128

 Free energy of the ion-electron system (eV)
  ---------------------------------------------------
  alpha Z        PSCENC =        90.42577596
  Ewald energy   TEWEN  =     -1146.88905665
  -Hartree energ DENC   =      -542.19237246
  -exchange      EXHF   =         0.00000000
  -V(xc)+E(xc)   XCENC  =       -70.63621648
  PAW double counting   =       931.69598119     -779.86714533
  entropy T*S    EENTRO =         0.00000000
  eigenvalues    EBANDS =       -68.47096666
  atomic energy  EATOM  =      1542.30469024
  Solvation  Ediel_sol  =         0.00000000
  ---------------------------------------------------
  free energy    TOTEN  =       -43.62931018 eV

  energy without entropy =      -43.62931018  energy(sigma->0) =      -43.62931018


--------------------------------------------------------------------------------------------------------




--------------------------------------- Iteration      1(   9)  ---------------------------------------


    POTLOK:  cpu time    0.0200: real time    0.0208
    SETDIJ:  cpu time    0.0050: real time    0.0039
    EDDIAG:  cpu time    0.0640: real time    0.0649
  RMM-DIIS:  cpu time    0.2810: real time    0.2803
    ORTHCH:  cpu time    0.0080: real time    0.0087
 BZINTS: Fermi energy:  3.240116; 36.000000 electrons
         Band energy: -68.894950;  BLOECHL correction:  0.000000
       DOS:  cpu time    0.0020: real time    0.0013
    CHARGE:  cpu time    0.0240: real time    0.0247
    MIXING:  cpu time    0.0010: real time    0.0009
    --------------------------------------------
      LOOP:  cpu time    0.4049: real time    0.4054

 eigenvalue-minimisations  :  1033
 total energy-change (2. order) : 0.9458389E-02  (-0.2847039E-01)
 number of electron      36.0000015 magnetization 
 augmentation part       -1.0446440 magnetization 

 Broyden mixing:
  rms(total) = 0.56952E-01    rms(broyden)= 0.56951E-01
  rms(prec ) = 0.79458E-01
  weight for this iteration     100.00

 eigenvalues of (default mixing * dielectric matrix)
  average eigenvalue GAMMA=   1.5315
  2.2049  2.1030  0.9090  0.9090

 Free energy of the ion-electron system (eV)
  ---------------------------------------------------
  alpha Z        PSCENC =        90.42577596
  Ewald energy   TEWEN  =     -1146.88905665
  -Hartree energ DENC   =      -541.84284653
  -exchange      EXHF   =         0.00000000
  -V(xc)+E(xc)   XCENC  =       -70.37860505
  PAW double counting   =       938.50293688     -786.84779626
  entropy T*S    EENTRO =         0.00000000
  eigenvalues    EBANDS =       -68.89495037
  atomic energy  EATOM  =      1542.30469024
  Solvation  Ediel_sol  =         0.00000000
  ---------------------------------------------------
  free energy    TOTEN  =       -43.61985179 eV

  energy without entropy =      -43.61985179  energy(sigma->0) =      -43.61985179


--------------------------------------------------------------------------------------------------------




--------------------------------------- Iteration      1(  10)  ---------------------------------------


    POTLOK:  cpu time    0.0210: real time    0.0235
    SETDIJ:  cpu time    0.0040: real time    0.0039
    EDDIAG:  cpu time    0.0640: real time    0.0649
  RMM-DIIS:  cpu time    0.2860: real time    0.2853
    ORTHCH:  cpu time    0.0080: real time    0.0087
 BZINTS: Fermi energy:  3.370480; 36.000000 electrons
         Band energy: -67.987701;  BLOECHL correction:  0.000000
       DOS:  cpu time    0.0020: real time    0.0013
    CHARGE:  cpu time    0.0240: real time    0.0246
    MIXING:  cpu time    0.0010: real time    0.0009
    --------------------------------------------
      LOOP:  cpu time    0.4099: real time    0.4132

 eigenvalue-minimisations  :  1049
 total energy-change (2. order) : 0.1575709E-01  (-0.6886363E-02)
 number of electron      36.0000015 magnetization 
 augmentation part       -1.1071588 magnetization 

 Broyden mixing:
  rms(total) = 0.88630E-02    rms(broyden)= 0.88623E-02
  rms(prec ) = 0.11427E-01
  weight for this iteration     100.00

 eigenvalues of (default mixing * dielectric matrix)
  average eigenvalue GAMMA=   1.4338
  2.4473  1.6213  0.8890  0.8890  1.3225

 Free energy of the ion-electron system (eV)
  ---------------------------------------------------
  alpha Z        PSCENC =        90.42577596
  Ewald energy   TEWEN  =     -1146.88905665
  -Hartree energ DENC   =      -542.63856447
  -exchange      EXHF   =         0.00000000
  -V(xc)+E(xc)   XCENC  =       -70.43355159
  PAW double counting   =       944.37493712     -792.76062465
  entropy T*S    EENTRO =         0.00000000
  eigenvalues    EBANDS =       -67.98770066
  atomic energy  EATOM  =      1542.30469024
  Solvation  Ediel_sol  =         0.00000000
  ---------------------------------------------------
  free energy    TOTEN  =       -43.60409470 eV

  energy without entropy =      -43.60409470  energy(sigma->0) =      -43.60409470


--------------------------------------------------------------------------------------------------------




--------------------------------------- Iteration      1(  11)  ---------------------------------------


    POTLOK:  cpu time    0.0210: real time    0.0206
    SETDIJ:  cpu time    0.0040: real time    0.0039
    EDDIAG:  cpu time    0.0650: real time    0.0651
  RMM-DIIS:  cpu time    0.2940: real time    0.2939
    ORTHCH:  cpu time    0.0090: real time    0.0087
 BZINTS: Fermi energy:  3.299466; 36.000000 electrons
         Band energy: -67.883288;  BLOECHL correction:  0.000000
       DOS:  cpu time    0.0010: real time    0.0012
    CHARGE:  cpu time    0.0250: real time    0.0250
    MIXING:  cpu time    0.0010: real time    0.0009
    --------------------------------------------
      LOOP:  cpu time    0.4199: real time    0.4193

 eigenvalue-minimisations  :  1098
 total energy-change (2. order) : 0.4756331E-04  (-0.3275254E-03)
 number of electron      36.0000015 magnetization 
 augmentation part       -1.0997351 magnetization 

 Broyden mixing:
  rms(total) = 0.30227E-02    rms(broyden)= 0.30226E-02
  rms(prec ) = 0.36950E-02
  weight for this iteration     100.00

 eigenvalues of (default mixing * dielectric matrix)
  average eigenvalue GAMMA=   1.6531
  2.7784  2.5889  1.8062  0.8931  0.8931  0.9591

 Free energy of the ion-electron system (eV)
  ---------------------------------------------------
  alpha Z        PSCENC =        90.42577596
  Ewald energy   TEWEN  =     -1146.88905665
  -Hartree energ DENC   =      -542.76309226
  -exchange      EXHF   =         0.00000000
  -V(xc)+E(xc)   XCENC  =       -70.40597741
  PAW double counting   =       944.54565511     -792.93875443
  entropy T*S    EENTRO =         0.00000000
  eigenvalues    EBANDS =       -67.88328769
  atomic energy  EATOM  =      1542.30469024
  Solvation  Ediel_sol  =         0.00000000
  ---------------------------------------------------
  free energy    TOTEN  =       -43.60404714 eV

  energy without entropy =      -43.60404714  energy(sigma->0) =      -43.60404714


--------------------------------------------------------------------------------------------------------




--------------------------------------- Iteration      1(  12)  ---------------------------------------


    POTLOK:  cpu time    0.0200: real time    0.0206
    SETDIJ:  cpu time    0.0040: real time    0.0039
    EDDIAG:  cpu time    0.0660: real time    0.0654
  RMM-DIIS:  cpu time    0.2980: real time    0.2987
    ORTHCH:  cpu time    0.0090: real time    0.0087
 BZINTS: Fermi energy:  3.303380; 36.000000 electrons
         Band energy: -67.713101;  BLOECHL correction:  0.000000
       DOS:  cpu time    0.0010: real time    0.0012
    CHARGE:  cpu time    0.0250: real time    0.0250
    MIXING:  cpu time    0.0010: real time    0.0010
    --------------------------------------------
      LOOP:  cpu time    0.4239: real time    0.4245

 eigenvalue-minimisations  :  1126
 total energy-change (2. order) :-0.1486905E-03  (-0.5565346E-04)
 number of electron      36.0000015 magnetization 
 augmentation part       -1.0981723 magnetization 

 Broyden mixing:
  rms(total) = 0.21367E-02    rms(broyden)= 0.21366E-02
  rms(prec ) = 0.27407E-02
  weight for this iteration     100.00

 eigenvalues of (default mixing * dielectric matrix)
  average eigenvalue GAMMA=   1.5916
  2.9405  2.3660  1.5636  1.5636  0.8950  0.8950  0.9175

 Free energy of the ion-electron system (eV)
  ---------------------------------------------------
  alpha Z        PSCENC =        90.42577596
  Ewald energy   TEWEN  =     -1146.88905665
  -Hartree energ DENC   =      -542.95616032
  -exchange      EXHF   =         0.00000000
  -V(xc)+E(xc)   XCENC  =       -70.39646344
  PAW double counting   =       944.24232267     -792.62220287
  entropy T*S    EENTRO =         0.00000000
  eigenvalues    EBANDS =       -67.71310142
  atomic energy  EATOM  =      1542.30469024
  Solvation  Ediel_sol  =         0.00000000
  ---------------------------------------------------
  free energy    TOTEN  =       -43.60419583 eV

  energy without entropy =      -43.60419583  energy(sigma->0) =      -43.60419583


--------------------------------------------------------------------------------------------------------




--------------------------------------- Iteration      1(  13)  ---------------------------------------


    POTLOK:  cpu time    0.0200: real time    0.0225
    SETDIJ:  cpu time    0.0040: real time    0.0039
    EDDIAG:  cpu time    0.0650: real time    0.0651
  RMM-DIIS:  cpu time    0.3040: real time    0.3036
    ORTHCH:  cpu time    0.0090: real time    0.0088
 BZINTS: Fermi energy:  3.305583; 36.000000 electrons
         Band energy: -67.704101;  BLOECHL correction:  0.000000
       DOS:  cpu time    0.0010: real time    0.0012
    CHARGE:  cpu time    0.0250: real time    0.0250
    MIXING:  cpu time    0.0010: real time    0.0010
    --------------------------------------------
      LOOP:  cpu time    0.4289: real time    0.4311

 eigenvalue-minimisations  :  1144
 total energy-change (2. order) :-0.6525029E-05  (-0.3426503E-04)
 number of electron      36.0000015 magnetization 
 augmentation part       -1.1018548 magnetization 

 Broyden mixing:
  rms(total) = 0.18650E-02    rms(broyden)= 0.18650E-02
  rms(prec ) = 0.25190E-02
  weight for this iteration     100.00

 eigenvalues of (default mixing * dielectric matrix)
  average eigenvalue GAMMA=   1.7383
  3.2732  2.6084  2.6084  1.6091  1.1503  0.8865  0.8865  0.8837

 Free energy of the ion-electron system (eV)
  ---------------------------------------------------
  alpha Z        PSCENC =        90.42577596
  Ewald energy   TEWEN  =     -1146.88905665
  -Hartree energ DENC   =      -542.95991929
  -exchange      EXHF   =         0.00000000
  -V(xc)+E(xc)   XCENC  =       -70.40048319
  PAW double counting   =       944.41162860     -792.79273729
  entropy T*S    EENTRO =         0.00000000
  eigenvalues    EBANDS =       -67.70410075
  atomic energy  EATOM  =      1542.30469024
  Solvation  Ediel_sol  =         0.00000000
  ---------------------------------------------------
  free energy    TOTEN  =       -43.60420235 eV

  energy without entropy =      -43.60420235  energy(sigma->0) =      -43.60420235


--------------------------------------------------------------------------------------------------------




--------------------------------------- Iteration      1(  14)  ---------------------------------------


    POTLOK:  cpu time    0.0200: real time    0.0204
    SETDIJ:  cpu time    0.0040: real time    0.0039
    EDDIAG:  cpu time    0.0650: real time    0.0651
  RMM-DIIS:  cpu time    0.2380: real time    0.2376
    ORTHCH:  cpu time    0.0080: real time    0.0087
 BZINTS: Fermi energy:  3.303805; 36.000000 electrons
         Band energy: -67.723435;  BLOECHL correction:  0.000000
       DOS:  cpu time    0.0010: real time    0.0011
    CHARGE:  cpu time    0.0250: real time    0.0250
    MIXING:  cpu time    0.0020: real time    0.0011
    --------------------------------------------
      LOOP:  cpu time    0.3629: real time    0.3629

 eigenvalue-minimisations  :   873
 total energy-change (2. order) : 0.1400219E-04  (-0.6409581E-05)
 number of electron      36.0000015 magnetization 
 augmentation part       -1.1001689 magnetization 

 Broyden mixing:
  rms(total) = 0.23899E-03    rms(broyden)= 0.23886E-03
  rms(prec ) = 0.27710E-03
  weight for this iteration     100.00

 eigenvalues of (default mixing * dielectric matrix)
  average eigenvalue GAMMA=   1.6049
  3.0512  2.7488  2.2595  1.4537  1.3102  0.8821  0.8821  0.9467  0.9101

 Free energy of the ion-electron system (eV)
  ---------------------------------------------------
  alpha Z        PSCENC =        90.42577596
  Ewald energy   TEWEN  =     -1146.88905665
  -Hartree energ DENC   =      -542.94299572
  -exchange      EXHF   =         0.00000000
  -V(xc)+E(xc)   XCENC  =       -70.39777504
  PAW double counting   =       944.25985457     -792.64124622
  entropy T*S    EENTRO =         0.00000000
  eigenvalues    EBANDS =       -67.72343549
  atomic energy  EATOM  =      1542.30469024
  Solvation  Ediel_sol  =         0.00000000
  ---------------------------------------------------
  free energy    TOTEN  =       -43.60418835 eV

  energy without entropy =      -43.60418835  energy(sigma->0) =      -43.60418835


--------------------------------------------------------------------------------------------------------




--------------------------------------- Iteration      1(  15)  ---------------------------------------


    POTLOK:  cpu time    0.0200: real time    0.0204
    SETDIJ:  cpu time    0.0040: real time    0.0039
    EDDIAG:  cpu time    0.0650: real time    0.0651
  RMM-DIIS:  cpu time    0.1910: real time    0.1903
    ORTHCH:  cpu time    0.0070: real time    0.0087
 BZINTS: Fermi energy:  3.303477; 36.000000 electrons
         Band energy: -67.718433;  BLOECHL correction:  0.000000
       DOS:  cpu time    0.0020: real time    0.0012
    --------------------------------------------
      LOOP:  cpu time    0.2890: real time    0.2896

 eigenvalue-minimisations  :   676
 total energy-change (2. order) :-0.4794128E-06  (-0.9439439E-06)
 number of electron      36.0000015 magnetization 
 augmentation part       -1.1001689 magnetization 

 Free energy of the ion-electron system (eV)
  ---------------------------------------------------
  alpha Z        PSCENC =        90.42577596
  Ewald energy   TEWEN  =     -1146.88905665
  -Hartree energ DENC   =      -542.94890772
  -exchange      EXHF   =         0.00000000
  -V(xc)+E(xc)   XCENC  =       -70.39762354
  PAW double counting   =       944.22026745     -792.60090135
  entropy T*S    EENTRO =         0.00000000
  eigenvalues    EBANDS =       -67.71843322
  atomic energy  EATOM  =      1542.30469024
  Solvation  Ediel_sol  =         0.00000000
  ---------------------------------------------------
  free energy    TOTEN  =       -43.60418883 eV

  energy without entropy =      -43.60418883  energy(sigma->0) =      -43.60418883


--------------------------------------------------------------------------------------------------------




 average (electrostatic) potential at core
  the test charge radii are     1.2296  0.9698
  (the norm of the test charge is              1.0000)
       1 -40.3323       2 -40.3323       3 -88.1695       4 -88.1695       5 -88.1695
       6 -88.1695
 
 
 
 E-fermi :   3.3035     XC(G=0):  -9.3247     alpha+bet : -9.6368


 k-point     1 :       0.0000    0.0000    0.0000
  band No.  band energies     occupation 
      1     -10.9295      2.00000
      2     -10.9104      2.00000
      3      -9.7290      2.00000
      4      -9.6950      2.00000
      5      -2.5231      2.00000
      6      -2.3616      2.00000
      7       0.5202      2.00000
      8       0.5202      2.00000
      9       0.5207      2.00000
     10       0.5207      2.00000
     11       1.1065      2.00000
     12       1.6251      2.00000
     13       1.6252      2.00000
     14       1.6271      2.00000
     15       1.6272      2.00000
     16       1.6750      2.00000
     17       2.9226      2.00000
     18       3.2986      2.00000
     19       5.8750      0.00000
     20       5.8848      0.00000
     21       5.9035      0.00000
     22       5.9543      0.00000

 k-point     2 :       0.1250   -0.0000    0.0000
  band No.  band energies     occupation 
      1     -10.7151      2.00000
      2     -10.6965      2.00000
      3      -9.6253      2.00000
      4      -9.5939      2.00000
      5      -2.2772      2.00000
      6      -2.1183      2.00000
      7       0.0557      2.00000
      8       0.0584      2.00000
      9       0.4570      2.00000
     10       0.6732      2.00000
     11       0.7543      2.00000
     12       0.7555      2.00000
     13       1.2891      2.00000
     14       1.2917      2.00000
     15       1.9311      2.00000
     16       2.2151      2.00000
     17       2.8436      2.00000
     18       3.0857      2.00000
     19       5.5305      0.00000
     20       5.6317      0.00000
     21       5.7030      0.00000
     22       5.8100      0.00000

 k-point     3 :       0.2500   -0.0000    0.0000
  band No.  band energies     occupation 
      1     -10.1454      2.00000
      2     -10.1287      2.00000
      3      -9.3530      2.00000
      4      -9.3286      2.00000
      5      -1.8873      2.00000
      6      -1.7764      2.00000
      7      -0.6910      2.00000
      8      -0.6475      2.00000
      9      -0.4607      2.00000
     10      -0.3592      2.00000
     11       0.6537      2.00000
     12       0.6572      2.00000
     13       1.3403      2.00000
     14       1.3438      2.00000
     15       1.7046      2.00000
     16       1.9134      2.00000
     17       2.3701      2.00000
     18       2.4186      2.00000
     19       5.1189      0.00000
     20       5.4386      0.00000
     21       5.4399      0.00000
     22       5.4564      0.00000

 k-point     4 :       0.3750   -0.0000    0.0000
  band No.  band energies     occupation 
      1      -9.4678      2.00000
      2      -9.4560      2.00000
      3      -9.0394      2.00000
      4      -9.0251      2.00000
      5      -2.2847      2.00000
      6      -2.2500      2.00000
      7      -1.2970      2.00000
      8      -1.2540      2.00000
      9      -0.8460      2.00000
     10      -0.7610      2.00000
     11       0.1561      2.00000
     12       0.1601      2.00000
     13       1.3426      2.00000
     14       1.4502      2.00000
     15       1.9284      2.00000
     16       1.9370      2.00000
     17       2.1738      2.00000
     18       2.2245      2.00000
     19       5.2596      0.00000
     20       5.2687      0.00000
     21       5.4545      0.00000
     22       5.6332      0.00000

 k-point     5 :       0.5000   -0.0000    0.0000
  band No.  band energies     occupation 
      1      -9.1369      2.00000
      2      -9.1304      2.00000
      3      -8.8921      2.00000
      4      -8.8856      2.00000
      5      -2.6132      2.00000
      6      -2.5862      2.00000
      7      -1.6523      2.00000
      8      -1.6278      2.00000
      9      -0.9678      2.00000
     10      -0.8919      2.00000
     11      -0.0245      2.00000
     12      -0.0204      2.00000
     13       1.2472      2.00000
     14       1.2667      2.00000
     15       2.1539      2.00000
     16       2.1660      2.00000
     17       2.4775      2.00000
     18       2.4813      2.00000
     19       5.2844      0.00000
     20       5.2881      0.00000
     21       5.7743      0.00000
     22       5.8289      0.00000

 k-point     6 :       0.1250    0.1250    0.0000
  band No.  band energies     occupation 
      1     -10.3217      2.00000
      2     -10.3042      2.00000
      3      -9.4359      2.00000
      4      -9.4092      2.00000
      5      -1.9204      2.00000
      6      -1.7807      2.00000
      7      -0.5131      2.00000
      8      -0.5005      2.00000
      9      -0.0645      2.00000
     10       0.0776      2.00000
     11       0.4645      2.00000
     12       0.4906      2.00000
     13       1.0935      2.00000
     14       1.0953      2.00000
     15       2.0964      2.00000
     16       2.2988      2.00000
     17       2.5524      2.00000
     18       2.6280      2.00000
     19       5.0625      0.00000
     20       5.3246      0.00000
     21       5.5373      0.00000
     22       5.5494      0.00000

 k-point     7 :       0.2500    0.1250    0.0000
  band No.  band energies     occupation 
      1      -9.6864      2.00000
      2      -9.6723      2.00000
      3      -9.1330      2.00000
      4      -9.1148      2.00000
      5      -1.9390      2.00000
      6      -1.8859      2.00000
      7      -0.9505      2.00000
      8      -0.9193      2.00000
      9      -0.7079      2.00000
     10      -0.6344      2.00000
     11      -0.0661      2.00000
     12       0.0087      2.00000
     13       1.1909      2.00000
     14       1.1968      2.00000
     15       1.7878      2.00000
     16       1.8743      2.00000
     17       2.3027      2.00000
     18       2.3125      2.00000
     19       4.9962      0.00000
     20       5.2127      0.00000
     21       5.5449      0.00000
     22       5.6392      0.00000

 k-point     8 :       0.3750    0.1250    0.0000
  band No.  band energies     occupation 
      1      -9.1527      2.00000
      2      -9.1450      2.00000
      3      -8.8841      2.00000
      4      -8.8758      2.00000
      5      -2.3259      2.00000
      6      -2.2990      2.00000
      7      -1.7016      2.00000
      8      -1.6925      2.00000
      9      -0.8374      2.00000
     10      -0.7668      2.00000
     11      -0.0666      2.00000
     12      -0.0242      2.00000
     13       1.2006      2.00000
     14       1.2169      2.00000
     15       1.3290      2.00000
     16       1.3673      2.00000
     17       2.6251      2.00000
     18       2.6434      2.00000
     19       5.2708      0.00000
     20       5.3350      0.00000
     21       5.7783      0.00000
     22       5.8547      0.00000

 k-point     9 :       0.2500    0.2500    0.0000
  band No.  band energies     occupation 
      1      -9.1681      2.00000
      2      -9.1595      2.00000
      3      -8.8759      2.00000
      4      -8.8660      2.00000
      5      -1.9666      2.00000
      6      -1.9381      2.00000
      7      -1.7530      2.00000
      8      -1.7418      2.00000
      9      -0.4876      2.00000
     10      -0.4631      2.00000
     11      -0.1386      2.00000
     12      -0.0503      2.00000
     13       0.2153      2.00000
     14       0.2379      2.00000
     15       1.4769      2.00000
     16       1.4876      2.00000
     17       2.6010      2.00000
     18       2.6108      2.00000
     19       5.1857      0.00000
     20       5.3139      0.00000
     21       5.8456      0.00000
     22       6.0925      0.00000

 k-point    10 :       0.3750    0.2500    0.0000
  band No.  band energies     occupation 
      1      -8.9305      2.00000
      2      -8.9274      2.00000
      3      -8.7533      2.00000
      4      -8.7502      2.00000
      5      -2.1372      2.00000
      6      -2.1264      2.00000
      7      -1.7912      2.00000
      8      -1.7751      2.00000
      9      -0.7775      2.00000
     10      -0.7402      2.00000
     11      -0.1064      2.00000
     12      -0.0855      2.00000
     13       0.1076      2.00000
     14       0.1586      2.00000
     15       1.0763      2.00000
     16       1.1162      2.00000
     17       2.9626      2.00000
     18       2.9838      2.00000
     19       4.9238      0.00000
     20       4.9327      0.00000
     21       6.1512      0.00000
     22       6.3248      0.00000

 k-point    11 :       0.0000    0.0000    0.5000
  band No.  band energies     occupation 
      1     -10.9201      2.00000
      2     -10.9201      2.00000
      3      -9.7119      2.00000
      4      -9.7119      2.00000
      5      -2.4451      2.00000
      6      -2.4451      2.00000
      7       0.5204      2.00000
      8       0.5204      2.00000
      9       0.5204      2.00000
     10       0.5204      2.00000
     11       1.3633      2.00000
     12       1.3633      2.00000
     13       1.6261      2.00000
     14       1.6261      2.00000
     15       1.6261      2.00000
     16       1.6261      2.00000
     17       3.1412      2.00000
     18       3.1412      2.00000
     19       5.8746      0.00000
     20       5.8889      0.00000
     21       5.9404      0.00000
     22       6.0890      0.00000

 k-point    12 :       0.1250   -0.0000    0.5000
  band No.  band energies     occupation 
      1     -10.7059      2.00000
      2     -10.7059      2.00000
      3      -9.6095      2.00000
      4      -9.6095      2.00000
      5      -2.2008      2.00000
      6      -2.2008      2.00000
      7       0.0567      2.00000
      8       0.0567      2.00000
      9       0.5718      2.00000
     10       0.5718      2.00000
     11       0.7549      2.00000
     12       0.7549      2.00000
     13       1.2904      2.00000
     14       1.2904      2.00000
     15       2.0433      2.00000
     16       2.0434      2.00000
     17       2.9906      2.00000
     18       2.9906      2.00000
     19       5.5739      0.00000
     20       5.5796      0.00000
     21       5.7124      0.00000
     22       5.8526      0.00000

 k-point    13 :       0.2500   -0.0000    0.5000
  band No.  band energies     occupation 
      1     -10.1372      2.00000
      2     -10.1371      2.00000
      3      -9.3406      2.00000
      4      -9.3406      2.00000
      5      -1.8336      2.00000
      6      -1.8336      2.00000
      7      -0.6749      2.00000
      8      -0.6749      2.00000
      9      -0.4020      2.00000
     10      -0.4020      2.00000
     11       0.6554      2.00000
     12       0.6554      2.00000
     13       1.3420      2.00000
     14       1.3420      2.00000
     15       1.8012      2.00000
     16       1.8012      2.00000
     17       2.3998      2.00000
     18       2.3998      2.00000
     19       5.2602      0.00000
     20       5.2608      0.00000
     21       5.4460      0.00000
     22       5.4511      0.00000

 k-point    14 :       0.3750   -0.0000    0.5000
  band No.  band energies     occupation 
      1      -9.4620      2.00000
      2      -9.4620      2.00000
      3      -9.0321      2.00000
      4      -9.0321      2.00000
      5      -2.2676      2.00000
      6      -2.2676      2.00000
      7      -1.2774      2.00000
      8      -1.2774      2.00000
      9      -0.8015      2.00000
     10      -0.8015      2.00000
     11       0.1581      2.00000
     12       0.1581      2.00000
     13       1.3943      2.00000
     14       1.3943      2.00000
     15       1.9327      2.00000
     16       1.9327      2.00000
     17       2.2011      2.00000
     18       2.2011      2.00000
     19       5.2641      0.00000
     20       5.2641      0.00000
     21       5.5376      0.00000
     22       5.5377      0.00000

 k-point    15 :       0.5000   -0.0000    0.5000
  band No.  band energies     occupation 
      1      -9.1337      2.00000
      2      -9.1337      2.00000
      3      -8.8888      2.00000
      4      -8.8888      2.00000
      5      -2.5998      2.00000
      6      -2.5998      2.00000
      7      -1.6409      2.00000
      8      -1.6409      2.00000
      9      -0.9289      2.00000
     10      -0.9289      2.00000
     11      -0.0225      2.00000
     12      -0.0225      2.00000
     13       1.2567      2.00000
     14       1.2567      2.00000
     15       2.1599      2.00000
     16       2.1599      2.00000
     17       2.4795      2.00000
     18       2.4795      2.00000
     19       5.2863      0.00000
     20       5.2863      0.00000
     21       5.8019      0.00000
     22       5.8021      0.00000

 k-point    16 :       0.1250    0.1250    0.5000
  band No.  band energies     occupation 
      1     -10.3131      2.00000
      2     -10.3131      2.00000
      3      -9.4224      2.00000
      4      -9.4224      2.00000
      5      -1.8534      2.00000
      6      -1.8534      2.00000
      7      -0.5086      2.00000
      8      -0.5086      2.00000
      9       0.0133      2.00000
     10       0.0133      2.00000
     11       0.4765      2.00000
     12       0.4765      2.00000
     13       1.0944      2.00000
     14       1.0944      2.00000
     15       2.1823      2.00000
     16       2.1823      2.00000
     17       2.6019      2.00000
     18       2.6019      2.00000
     19       5.1823      0.00000
     20       5.1866      0.00000
     21       5.5436      0.00000
     22       5.6463      0.00000

 k-point    17 :       0.2500    0.1250    0.5000
  band No.  band energies     occupation 
      1      -9.6795      2.00000
      2      -9.6795      2.00000
      3      -9.1238      2.00000
      4      -9.1238      2.00000
      5      -1.9128      2.00000
      6      -1.9128      2.00000
      7      -0.9367      2.00000
      8      -0.9367      2.00000
      9      -0.6711      2.00000
     10      -0.6711      2.00000
     11      -0.0260      2.00000
     12      -0.0260      2.00000
     13       1.1937      2.00000
     14       1.1937      2.00000
     15       1.8290      2.00000
     16       1.8290      2.00000
     17       2.3082      2.00000
     18       2.3082      2.00000
     19       5.1029      0.00000
     20       5.1031      0.00000
     21       5.5545      0.00000
     22       5.9715      0.00000

 k-point    18 :       0.3750    0.1250    0.5000
  band No.  band energies     occupation 
      1      -9.1489      2.00000
      2      -9.1489      2.00000
      3      -8.8799      2.00000
      4      -8.8799      2.00000
      5      -2.3126      2.00000
      6      -2.3125      2.00000
      7      -1.6973      2.00000
      8      -1.6973      2.00000
      9      -0.8028      2.00000
     10      -0.8028      2.00000
     11      -0.0440      2.00000
     12      -0.0440      2.00000
     13       1.2081      2.00000
     14       1.2081      2.00000
     15       1.3481      2.00000
     16       1.3481      2.00000
     17       2.6345      2.00000
     18       2.6345      2.00000
     19       5.3032      0.00000
     20       5.3032      0.00000
     21       5.8122      0.00000
     22       5.8126      0.00000

 k-point    19 :       0.2500    0.2500    0.5000
  band No.  band energies     occupation 
      1      -9.1639      2.00000
      2      -9.1639      2.00000
      3      -8.8709      2.00000
      4      -8.8709      2.00000
      5      -1.9525      2.00000
      6      -1.9525      2.00000
      7      -1.7473      2.00000
      8      -1.7473      2.00000
      9      -0.4791      2.00000
     10      -0.4791      2.00000
     11      -0.0903      2.00000
     12      -0.0903      2.00000
     13       0.2268      2.00000
     14       0.2268      2.00000
     15       1.4812      2.00000
     16       1.4812      2.00000
     17       2.6060      2.00000
     18       2.6060      2.00000
     19       5.2497      0.00000
     20       5.2499      0.00000
     21       5.9446      0.00000
     22       6.1609      0.00000

 k-point    20 :       0.3750    0.2500    0.5000
  band No.  band energies     occupation 
      1      -8.9289      2.00000
      2      -8.9289      2.00000
      3      -8.7517      2.00000
      4      -8.7517      2.00000
      5      -2.1319      2.00000
      6      -2.1319      2.00000
      7      -1.7829      2.00000
      8      -1.7829      2.00000
      9      -0.7598      2.00000
     10      -0.7598      2.00000
     11      -0.0986      2.00000
     12      -0.0986      2.00000
     13       0.1379      2.00000
     14       0.1379      2.00000
     15       1.0948      2.00000
     16       1.0948      2.00000
     17       2.9731      2.00000
     18       2.9731      2.00000
     19       4.9284      0.00000
     20       4.9284      0.00000
     21       6.2285      0.00000
     22       6.2514      0.00000


--------------------------------------------------------------------------------------------------------


 soft charge-density along one line, spin component           1
         0         1         2         3         4         5         6         7         8         9
 total charge-density along one line
 
 pseudopotential strength for first ion, spin component:           1
 -8.238  -0.000   0.000   0.000   0.000  -0.074   0.000  -0.000
 -0.000  -8.239   0.000  -0.000  -0.000   0.000  -0.074  -0.000
  0.000   0.000  -8.218  -0.000  -0.000  -0.000  -0.000  -0.075
  0.000  -0.000  -0.000  -8.239  -0.000  -0.000   0.000   0.000
  0.000  -0.000  -0.000  -0.000  -8.238  -0.000   0.000   0.000
 -0.074   0.000  -0.000  -0.000  -0.000   0.112  -0.000   0.000
  0.000  -0.074  -0.000   0.000   0.000  -0.000   0.112   0.000
 -0.000  -0.000  -0.075   0.000   0.000   0.000   0.000   0.112
 -0.000   0.000   0.000  -0.074   0.000   0.000  -0.000  -0.000
 -0.000   0.000   0.000   0.000  -0.074   0.000  -0.000  -0.000
  0.000  -0.000  -0.005   0.000  -0.000  -0.000   0.000   0.000
 -0.000   0.000   0.001  -0.000   0.000   0.000  -0.000  -0.000
 -0.000   0.000  -0.000  -0.000  -0.007   0.000  -0.000   0.000
 -0.000   0.000   0.000  -0.000  -0.000  -0.000  -0.000  -0.000
 -0.007  -0.000   0.000   0.000  -0.000  -0.000  -0.000  -0.000
  0.000  -0.000   0.000   0.000   0.004  -0.000   0.000  -0.000
  0.000  -0.000  -0.000   0.000   0.000  -0.000   0.000   0.000
  0.004   0.000  -0.000  -0.000   0.000   0.000  -0.000   0.000
 total augmentation occupancy for first ion, spin component:           1
  0.965   0.000  -0.000   0.000  -0.000   0.602  -0.000  -0.000   0.000  -0.000  -0.000   0.000   0.000   0.000  -0.065  -0.000
  0.000   0.907   0.000   0.000   0.000   0.000   0.840   0.000   0.000   0.000  -0.000  -0.000  -0.000  -0.000  -0.000   0.000
 -0.000  -0.000   1.029   0.000   0.000  -0.000   0.000   0.502   0.000   0.000   0.111  -0.019  -0.000  -0.000   0.000   0.000
  0.000   0.000   0.000   0.907  -0.000   0.000   0.000  -0.000   0.840  -0.000  -0.000   0.000  -0.000  -0.000   0.000  -0.000
 -0.000   0.000   0.000   0.000   0.965  -0.000   0.000   0.000   0.000   0.602   0.000  -0.000  -0.065  -0.000  -0.000   0.007
  0.602   0.000  -0.000   0.000  -0.000   0.679   0.000  -0.000  -0.000  -0.000   0.000   0.000   0.000  -0.000  -0.136  -0.000
  0.000   0.840   0.000   0.000  -0.000  -0.000   1.082   0.000   0.000   0.000   0.000   0.000   0.000  -0.000   0.000  -0.000
 -0.000  -0.000   0.502   0.000   0.000  -0.000   0.000   0.477   0.000   0.000   0.059  -0.021  -0.000  -0.000   0.000   0.000
  0.000   0.000  -0.000   0.840  -0.000  -0.000   0.000   0.000   1.082   0.000  -0.000   0.000  -0.000   0.000   0.000   0.000
 -0.000   0.000   0.000  -0.000   0.602  -0.000  -0.000   0.000   0.000   0.679   0.000  -0.000  -0.136  -0.000  -0.000   0.023
 -0.000   0.000   0.111   0.000   0.000   0.000  -0.000   0.059  -0.000   0.000   1.207  -0.186   0.000   0.000   0.000   0.000
 -0.000  -0.000  -0.019   0.000  -0.000   0.000   0.000  -0.021  -0.000  -0.000  -0.186   0.042   0.000   0.000  -0.000   0.000
  0.000   0.000  -0.000  -0.000  -0.065   0.000   0.000  -0.000   0.000  -0.136  -0.000   0.000   0.217  -0.000   0.000  -0.032
  0.000  -0.000  -0.000  -0.000  -0.000   0.000   0.000  -0.000  -0.000   0.000   0.000   0.000  -0.000   0.264  -0.000   0.000
 -0.065  -0.000   0.000  -0.000  -0.000  -0.136   0.000   0.000   0.000  -0.000   0.000   0.000   0.000  -0.000   0.217  -0.000
 -0.000   0.000   0.000   0.000   0.007  -0.000   0.000   0.000  -0.000   0.023   0.000  -0.000  -0.032   0.000  -0.000   0.005
  0.000  -0.000   0.000   0.000   0.000   0.000   0.000  -0.000  -0.000   0.000  -0.000  -0.000  -0.000  -0.038   0.000  -0.000
  0.007   0.000  -0.000  -0.000   0.000   0.023  -0.000  -0.000   0.000   0.000  -0.000  -0.000  -0.000  -0.000  -0.032   0.000


------------------------ aborting loop because EDIFF is reached ----------------------------------------


    CHARGE:  cpu time    0.0250: real time    0.0252
    FORLOC:  cpu time    0.0030: real time    0.0024
    FORNL :  cpu time    0.0970: real time    0.0965
    STRESS:  cpu time    0.2690: real time    0.2691
    FORCOR:  cpu time    0.0240: real time    0.0231
    FORHAR:  cpu time    0.0050: real time    0.0050
    MIXING:  cpu time    0.0000: real time    0.0011
    OFIELD:  cpu time    0.0000: real time    0.0000

  DFT-D2 method for vdW energy calculation
  -------------------------------------------------------------------

  Parameters of vdW forcefield:
         C6(Jnm^6/mol)     R0(A)
   -----------------------------
   Mo      24.670          1.639
   S        5.570          1.683

  IVDW =   1
  VDW_RADIUS =    50.000 A
  VDW_S6 =     0.750
  VDW_SR =     1.000
  VDW_D =    20.000
  LVDW_EWALD = F

  Number of pair interactions contributing to vdW energy:   84128
  Edisp (eV):   -1.33129
    FORVDW:  cpu time    0.0220: real time    0.0244

  FORCE on cell =-STRESS in cart. coord.  units (eV):
  Direction    XX          YY          ZZ          XY          YZ          ZX
  --------------------------------------------------------------------------------------
  Alpha Z    90.42578    90.42578    90.42578
  Ewald     -12.90873   -12.90785 -1121.07429     0.00038     0.00000     0.00025
  Hartree   466.59189   466.59191  -390.21577     0.00003     0.00000    -0.00001
  E(xc)    -140.59802  -140.59804  -141.78922    -0.00001    -0.00000    -0.00000
  Local   -1080.51761 -1080.51838   872.58151    -0.00051     0.00000    -0.00011
  n-local   254.30505   251.54866   263.33411    -0.50699    -0.00003     0.00004
  augment   -51.13216   -51.13188   -53.33510     0.00025     0.00000    -0.00001
  Kinetic   471.83022   477.42083   479.58696   -14.80415     0.00014    -0.00008
  Fock        0.00000     0.00000     0.00000     0.00000     0.00000     0.00000
  vdW         0.17103     0.17103    -0.86546     0.00000     0.00000    -0.00000
  -------------------------------------------------------------------------------------
  Total      -0.41525    -0.41525    -1.35150     0.00000    -0.00000     0.00000
  in kB      -5.07282    -5.07282   -16.51025     0.00000    -0.00000     0.00000
  external pressure =       -8.89 kB  Pullay stress =        0.00 kB


 VOLUME and BASIS-vectors are now :
 -----------------------------------------------------------------------------
  energy-cutoff  :      400.00
  volume of cell :      131.15
      direct lattice vectors                 reciprocal lattice vectors
     3.190315730  0.000000000  0.000000000     0.313448600  0.180969634  0.000000000
    -1.595157865  2.762894468  0.000000000     0.000000000  0.361939267  0.000000000
     0.000000000  0.000000000 14.879004300     0.000000000  0.000000000  0.067208798

  length of vectors
     3.190315730  3.190315730 14.879004300     0.361939267  0.361939267  0.067208798


 FORCES acting on ions
    electron-ion (+dipol)            ewald-force                    non-local-force                 convergence-correction
 -----------------------------------------------------------------------------------------------
   0.474E-04 -.346E-04 -.957E-05   0.928E-04 -.107E-03 0.288E-09   -.191E-16 0.382E-16 0.635E-21   0.307E-08 -.419E-08 -.272E-09
   0.659E-04 -.308E-04 -.957E-05   -.928E-04 0.107E-03 -.288E-09   0.520E-17 -.520E-16 0.424E-21   0.530E-08 -.642E-09 -.272E-09
   0.522E-03 -.309E-03 -.242E+03   0.865E-04 -.537E-04 0.247E+03   0.213E-16 -.347E-17 -.479E+01   0.809E-08 -.491E-08 0.688E-02
   -.117E-02 0.684E-03 0.242E+03   -.865E-04 0.537E-04 -.247E+03   0.954E-17 0.347E-17 0.479E+01   -.228E-07 0.134E-07 -.688E-02
   0.520E-03 0.684E-03 -.242E+03   -.638E-05 0.537E-04 0.247E+03   0.117E-16 -.226E-16 -.479E+01   0.111E-07 0.117E-07 0.688E-02
   -.121E-02 -.287E-03 0.242E+03   0.638E-05 -.537E-04 -.247E+03   -.256E-16 0.226E-16 0.479E+01   -.200E-07 -.658E-08 -.688E-02
 -----------------------------------------------------------------------------------------------
   -.122E-02 0.706E-03 -.106E-04   -.561E-14 0.109E-13 0.284E-13   0.304E-17 -.139E-16 -.888E-15   -.152E-07 0.880E-08 -.726E-09
 
 
 POSITION                                       TOTAL-FORCE (eV/Angst)
 -----------------------------------------------------------------------------------
     -0.00000      1.84193      3.71975        -0.000000     -0.000000      0.000000
      1.59516      0.92096     11.15925         0.000000     -0.000000      0.000000
     -0.00000      1.84193     12.72414        -0.000000      0.000000     -0.084030
      1.59516      0.92096      2.15487         0.000000     -0.000000      0.084030
      1.59516      0.92096      5.28464         0.000000      0.000000     -0.084030
      0.00000      1.84193      9.59437        -0.000000      0.000000      0.084030
 -----------------------------------------------------------------------------------
    total drift:                               -0.001223      0.000706     -0.000011


--------------------------------------------------------------------------------------------------------



  FREE ENERGIE OF THE ION-ELECTRON SYSTEM (eV)
  ---------------------------------------------------
  free  energy   TOTEN  =       -44.93547585 eV

  energy  without entropy=      -44.93547585  energy(sigma->0) =      -44.93547585
 


--------------------------------------------------------------------------------------------------------


    POTLOK:  cpu time    0.0250: real time    0.0249


--------------------------------------------------------------------------------------------------------


     LOOP+:  cpu time    6.5740: real time    6.6760
    4ORBIT:  cpu time    0.0000: real time    0.0000
 BZINTS: Fermi energy:  3.303477; 36.000000 electrons
         Band energy: -67.718433;  BLOECHL correction:  0.000000

 total amount of memory used by VASP MPI-rank0    45993. kBytes
=======================================================================

   base      :      30000. kBytes
   nonl-proj :       7120. kBytes
   fftplans  :       1702. kBytes
   grid      :       2725. kBytes
   one-center:         46. kBytes
   wavefun   :       4400. kBytes
 
  
  
 General timing and accounting informations for this job:
 ========================================================
  
                  Total CPU time used (sec):        7.391
                            User time (sec):        7.289
                          System time (sec):        0.102
                         Elapsed time (sec):        8.029
  
                   Maximum memory used (kb):       37748.
                   Average memory used (kb):           0.
  
                          Minor page faults:         9705
                          Major page faults:          131
                 Voluntary context switches:         2366
