perl: warning: Setting locale failed.
perl: warning: Please check that your locale settings:
	LANGUAGE = (unset),
	LC_ALL = (unset),
	LC_CTYPE = "UTF-8",
	LANG = "en_US.iso885915"
    are supported and installed on your system.
perl: warning: Falling back to the standard locale ("C").
Starting job 28526448 ("jobname") on c15-30 at Fri Nov 8 00:00:08 CET 2019
 running on    4 total cores
 distrk:  each k-point on    4 cores,    1 groups
 distr:  one band on    2 cores,    2 groups
 using from now: INCAR     
 vasp.5.4.4.18Apr17-6-g9f103f2a35 (build Jun 30 2017 11:15:00) complex          
  
 POSCAR found type information on POSCAR  Mo S 
 POSCAR found :  2 types and       6 ions
 scaLAPACK will be used
 LDA part: xc-table for Pade appr. of Perdew
 POSCAR, INCAR and KPOINTS ok, starting setup
 FFT: planning ...
 WAVECAR not read
 WARNING: random wavefunctions but no delay for mixing, default for NELMDL
 entering main loop
       N       E                     dE             d eps       ncg     rms          rms(c)
DAV:   1     0.185342448219E+03    0.18534E+03   -0.13892E+04   880   0.115E+03
DAV:   2    -0.305115853312E+02   -0.21585E+03   -0.21019E+03  1164   0.252E+02
DAV:   3    -0.462594854435E+02   -0.15748E+02   -0.15678E+02  1140   0.708E+01
DAV:   4    -0.468081242779E+02   -0.54864E+00   -0.54741E+00  1246   0.132E+01
DAV:   5    -0.468189407634E+02   -0.10816E-01   -0.10813E-01  1142   0.197E+00    0.973E+00
RMM:   6    -0.444360987955E+02    0.23828E+01   -0.24371E+01   980   0.195E+01    0.338E+00
RMM:   7    -0.436943733062E+02    0.74173E+00   -0.19775E+00   966   0.560E+00    0.179E+00
RMM:   8    -0.436293101775E+02    0.65063E-01   -0.87814E-01  1007   0.333E+00    0.820E-01
RMM:   9    -0.436198517889E+02    0.94584E-02   -0.28470E-01  1033   0.222E+00    0.570E-01
RMM:  10    -0.436040947015E+02    0.15757E-01   -0.68864E-02  1049   0.111E+00    0.886E-02
RMM:  11    -0.436040471382E+02    0.47563E-04   -0.32753E-03  1098   0.239E-01    0.302E-02
RMM:  12    -0.436041958287E+02   -0.14869E-03   -0.55653E-04  1126   0.105E-01    0.214E-02
RMM:  13    -0.436042023537E+02   -0.65250E-05   -0.34265E-04  1144   0.728E-02    0.186E-02
RMM:  14    -0.436041883515E+02    0.14002E-04   -0.64096E-05   873   0.352E-02    0.239E-03
RMM:  15    -0.436041888309E+02   -0.47941E-06   -0.94394E-06   676   0.139E-02
 Error reading item 'IVDW' from file INCAR
   1 F= -.43604189E+02 E0= -.43604189E+02  d E =0.000000E+00

Currently Loaded Modulefiles:
  1) Anaconda3/5.1.0       3) vesta/3.3.8           5) intel/2016.1
  2) gnuplot/5.0.4         4) imagemagick/6.7.9-0   6) vasp/5.4.1.Feb16

Job script resource usage:
       JobID  MaxVMSize     MaxRSS 
------------ ---------- ---------- 
28526448.ba+    216888K      2319K 

Job step resource usage:
       JobID    JobName  AllocCPUS  MaxVMSize     MaxRSS    Elapsed ExitCode 
------------ ---------- ---------- ---------- ---------- ---------- -------- 
28526448        jobname          4                         00:00:11      0:0 
28526448.0    pmi_proxy          1    279832K       523K   00:00:09      0:0 

Job 28526448 ("jobname") completed on c15-30 at Fri Nov 8 00:00:17 CET 2019
