<?xml version="1.0" encoding="ISO-8859-1"?>
<modeling>
 <generator>
  <i name="program" type="string">vasp </i>
  <i name="version" type="string">5.4.4.18Apr17-6-g9f103f2a35  </i>
  <i name="subversion" type="string">(build Jun 30 2017 11:15:00) complex            parallel </i>
  <i name="platform" type="string">STALLO_VASP_5.4.4 </i>
  <i name="date" type="string">2019 11 08 </i>
  <i name="time" type="string">11:36:34 </i>
 </generator>
 <incar>
  <i type="string" name="PREC">normal    ! low/normal/accurate</i>
  <i type="string" name="ALGO"> Fast      ! Algorithm for electronic re</i>
  <i type="int" name="ISPIN">     1</i>
  <i type="int" name="NELMIN">     4</i>
  <i name="EDIFF">      0.00001000</i>
  <i type="int" name="NSW">     0</i>
  <i name="ENCUT">    400.00000000</i>
  <i type="logical" name="LREAL"> F  </i>
  <i type="int" name="ISMEAR">    -5</i>
  <i name="SIGMA">      0.20000000</i>
  <i type="logical" name="LWAVE"> F  </i>
  <v type="int" name="KPOINT_BSE">    -1     0     0     0</v>
 </incar>
 <structure name="primitive_cell" >
  <crystal>
   <varray name="basis" >
    <v>       3.19031573       0.00000000       0.00000000 </v>
    <v>      -1.59515786       2.76289447       0.00000000 </v>
    <v>       0.00000000       0.00000000      14.87900430 </v>
   </varray>
   <i name="volume">    131.15106795 </i>
   <varray name="rec_basis" >
    <v>       0.31344860       0.18096963       0.00000000 </v>
    <v>       0.00000000       0.36193927       0.00000000 </v>
    <v>       0.00000000       0.00000000       0.06720880 </v>
   </varray>
  </crystal>
  <varray name="positions" >
   <v>       0.33333300      -0.33333300       0.25000000 </v>
   <v>      -0.33333400       0.33333300       0.35517400 </v>
   <v>      -0.33333300       0.33333300       0.14482600 </v>
   <v>       0.33333300      -0.33333300      -0.14482600 </v>
   <v>       0.33333400      -0.33333300      -0.35517400 </v>
   <v>      -0.33333300       0.33333300      -0.25000000 </v>
  </varray>
 </structure>
 <varray name="primitive_index" >
  <v type="int" >        1 </v>
  <v type="int" >        5 </v>
  <v type="int" >        4 </v>
  <v type="int" >        3 </v>
  <v type="int" >        6 </v>
  <v type="int" >        2 </v>
 </varray>
 <kpoints>
  <generation param="Gamma">
   <v type="int" name="divisions">       8        8        2 </v>
   <v name="usershift">      0.00000000       0.00000000       0.00000000 </v>
   <v name="genvec1">      0.12500000       0.00000000       0.00000000 </v>
   <v name="genvec2">      0.00000000       0.12500000       0.00000000 </v>
   <v name="genvec3">      0.00000000       0.00000000       0.50000000 </v>
   <v name="shift">      0.00000000       0.00000000       0.00000000 </v>
  </generation>
  <varray name="kpointlist" >
   <v>       0.00000000       0.00000000       0.00000000 </v>
   <v>       0.12500000      -0.00000000       0.00000000 </v>
   <v>       0.25000000      -0.00000000       0.00000000 </v>
   <v>       0.37500000      -0.00000000       0.00000000 </v>
   <v>       0.50000000      -0.00000000       0.00000000 </v>
   <v>       0.12500000       0.12500000       0.00000000 </v>
   <v>       0.25000000       0.12500000       0.00000000 </v>
   <v>       0.37500000       0.12500000       0.00000000 </v>
   <v>       0.25000000       0.25000000       0.00000000 </v>
   <v>       0.37500000       0.25000000       0.00000000 </v>
   <v>       0.00000000       0.00000000       0.50000000 </v>
   <v>       0.12500000      -0.00000000       0.50000000 </v>
   <v>       0.25000000      -0.00000000       0.50000000 </v>
   <v>       0.37500000      -0.00000000       0.50000000 </v>
   <v>       0.50000000      -0.00000000       0.50000000 </v>
   <v>       0.12500000       0.12500000       0.50000000 </v>
   <v>       0.25000000       0.12500000       0.50000000 </v>
   <v>       0.37500000       0.12500000       0.50000000 </v>
   <v>       0.25000000       0.25000000       0.50000000 </v>
   <v>       0.37500000       0.25000000       0.50000000 </v>
  </varray>
  <varray name="weights" >
   <v>       0.00781250 </v>
   <v>       0.04687500 </v>
   <v>       0.04687500 </v>
   <v>       0.04687500 </v>
   <v>       0.02343750 </v>
   <v>       0.04687500 </v>
   <v>       0.09375000 </v>
   <v>       0.09375000 </v>
   <v>       0.04687500 </v>
   <v>       0.04687500 </v>
   <v>       0.00781250 </v>
   <v>       0.04687500 </v>
   <v>       0.04687500 </v>
   <v>       0.04687500 </v>
   <v>       0.02343750 </v>
   <v>       0.04687500 </v>
   <v>       0.09375000 </v>
   <v>       0.09375000 </v>
   <v>       0.04687500 </v>
   <v>       0.04687500 </v>
  </varray>
  <varray name="tetrahedronlist"  type="int" >
   <v type="int" >        8        2        2        6       12 </v>
   <v type="int" >        8        1        2        2       12 </v>
   <v type="int" >        4        1        2       11       12 </v>
   <v type="int" >        4        2        6       12       16 </v>
   <v type="int" >        8        2       12       12       16 </v>
   <v type="int" >        8        2       11       12       12 </v>
   <v type="int" >        8        3        6        7       16 </v>
   <v type="int" >        8        2        3        6       16 </v>
   <v type="int" >        4        2        3       12       16 </v>
   <v type="int" >        4        3        7       16       17 </v>
   <v type="int" >        8        3       13       16       17 </v>
   <v type="int" >        8        3       12       13       16 </v>
   <v type="int" >        8        4        7        8       17 </v>
   <v type="int" >        8        3        4        7       17 </v>
   <v type="int" >        4        3        4       13       17 </v>
   <v type="int" >        4        4        8       17       18 </v>
   <v type="int" >        8        4       14       17       18 </v>
   <v type="int" >        8        4       13       14       17 </v>
   <v type="int" >        8        5        8        8       18 </v>
   <v type="int" >        8        4        5        8       18 </v>
   <v type="int" >        4        4        5       14       18 </v>
   <v type="int" >        4        5        8       18       18 </v>
   <v type="int" >        4        5       15       18       18 </v>
   <v type="int" >        8        5       14       15       18 </v>
   <v type="int" >        8        4        7        8       18 </v>
   <v type="int" >        4        4        5       15       18 </v>
   <v type="int" >        4        4        7       17       18 </v>
   <v type="int" >        8        4       14       15       18 </v>
   <v type="int" >        8        3        6        7       17 </v>
   <v type="int" >        4        3        4       14       17 </v>
   <v type="int" >        4        3        6       16       17 </v>
   <v type="int" >        8        3       13       14       17 </v>
   <v type="int" >        4        2        2        6       16 </v>
   <v type="int" >        4        2        3       13       16 </v>
   <v type="int" >        4        2        2       12       16 </v>
   <v type="int" >        8        2       12       13       16 </v>
   <v type="int" >        4        1        2       12       12 </v>
   <v type="int" >        4        1       11       12       12 </v>
   <v type="int" >        8        3        6        7       13 </v>
   <v type="int" >        8        2        3        6       13 </v>
   <v type="int" >        4        2        6       12       13 </v>
   <v type="int" >        4        6        7       13       17 </v>
   <v type="int" >        8        6       13       16       17 </v>
   <v type="int" >        8        6       12       13       16 </v>
   <v type="int" >        8        7        7        9       17 </v>
   <v type="int" >        8        6        7        7       17 </v>
   <v type="int" >        4        6        7       16       17 </v>
   <v type="int" >        4        7        9       17       19 </v>
   <v type="int" >        8        7       17       17       19 </v>
   <v type="int" >        8        7       16       17       17 </v>
   <v type="int" >        8        8        9       10       19 </v>
   <v type="int" >        8        7        8        9       19 </v>
   <v type="int" >        4        7        8       17       19 </v>
   <v type="int" >        4        8       10       19       20 </v>
   <v type="int" >        8        8       18       19       20 </v>
   <v type="int" >        8        8       17       18       19 </v>
   <v type="int" >        8        8        9       10       20 </v>
   <v type="int" >        4        8        8       10       20 </v>
   <v type="int" >        4        8        8       18       20 </v>
   <v type="int" >        4        8        9       19       20 </v>
   <v type="int" >        8        8       18       18       20 </v>
   <v type="int" >        4        7        7        9       19 </v>
   <v type="int" >        4        7        8       18       19 </v>
   <v type="int" >        4        7        7       17       19 </v>
   <v type="int" >        8        7       17       18       19 </v>
   <v type="int" >        4        6        7       17       17 </v>
   <v type="int" >        4        3        6       13       17 </v>
   <v type="int" >        4        6       16       17       17 </v>
   <v type="int" >        4        2        6       13       16 </v>
   <v type="int" >        8        4        7        8       14 </v>
   <v type="int" >        8        3        4        7       14 </v>
   <v type="int" >        4        3        7       13       14 </v>
   <v type="int" >        4        7        8       14       18 </v>
   <v type="int" >        8        7       14       17       18 </v>
   <v type="int" >        8        7       13       14       17 </v>
   <v type="int" >        8        8        9       10       18 </v>
   <v type="int" >        8        7        8        9       18 </v>
   <v type="int" >        4        7        9       17       18 </v>
   <v type="int" >        4        9       10       18       20 </v>
   <v type="int" >        8        9       18       19       20 </v>
   <v type="int" >        8        9       17       18       19 </v>
   <v type="int" >        4       10       10       10       20 </v>
   <v type="int" >        8        9       10       10       20 </v>
   <v type="int" >        4        9       10       19       20 </v>
   <v type="int" >        4       10       10       20       20 </v>
   <v type="int" >        4       10       20       20       20 </v>
   <v type="int" >        8       10       19       20       20 </v>
   <v type="int" >        4        9       10       20       20 </v>
   <v type="int" >        4        8        9       18       20 </v>
   <v type="int" >        4        9       19       20       20 </v>
   <v type="int" >        4        7        9       18       19 </v>
   <v type="int" >        4        4        7       14       18 </v>
   <v type="int" >        4        3        7       14       17 </v>
   <v type="int" >        4        5        8        8       15 </v>
   <v type="int" >        8        4        5        8       15 </v>
   <v type="int" >        4        4        8       14       15 </v>
   <v type="int" >        4        8        8       15       18 </v>
   <v type="int" >        8        8       15       18       18 </v>
   <v type="int" >        8        8       14       15       18 </v>
   <v type="int" >        8        8        8       10       18 </v>
   <v type="int" >        4        8       10       18       18 </v>
   <v type="int" >        4        9       10       18       19 </v>
   <v type="int" >        8       10       18       19       20 </v>
   <v type="int" >        4       10       18       18       20 </v>
   <v type="int" >        4        9       10       10       19 </v>
   <v type="int" >        4       10       10       19       20 </v>
   <v type="int" >        4        8       10       18       19 </v>
   <v type="int" >        4        8       10       18       20 </v>
   <v type="int" >        4        5        8       15       18 </v>
   <v type="int" >        4        4        8       15       18 </v>
   <v type="int" >        8        4        5        8       14 </v>
   <v type="int" >        4        5        8       14       15 </v>
   <v type="int" >        4        7        8       14       17 </v>
   <v type="int" >        8        8       14       17       18 </v>
   <v type="int" >        8        7        8        9       17 </v>
   <v type="int" >        4        8        9       17       18 </v>
   <v type="int" >        4        7        9       17       17 </v>
   <v type="int" >        4        9       17       17       19 </v>
   <v type="int" >        4        8        9       17       19 </v>
   <v type="int" >        4        4        8       14       17 </v>
   <v type="int" >        4        5        8       14       18 </v>
   <v type="int" >        8        3        4        7       13 </v>
   <v type="int" >        4        4        7       13       14 </v>
   <v type="int" >        4        6        7       13       16 </v>
   <v type="int" >        8        7       13       16       17 </v>
   <v type="int" >        4        6        7        7       16 </v>
   <v type="int" >        4        7        7       16       17 </v>
   <v type="int" >        4        3        7       13       16 </v>
   <v type="int" >        4        4        7       13       17 </v>
   <v type="int" >        8        2        3        6       12 </v>
   <v type="int" >        4        3        6       12       13 </v>
   <v type="int" >        4        2        6       12       12 </v>
   <v type="int" >        4        6       12       12       16 </v>
   <v type="int" >        4        3        6       12       16 </v>
   <v type="int" >        4        1        2        2       11 </v>
   <v type="int" >        4        2        2       11       12 </v>
  </varray>
  <i name="volumeweight">      0.00130208 </i>
 </kpoints>
 <parameters>
  <separator name="general" >
   <i type="string" name="SYSTEM">unknown system</i>
   <i type="logical" name="LCOMPAT"> F  </i>
  </separator>
  <separator name="electronic" >
   <i type="string" name="PREC">normal</i>
   <i name="ENMAX">    400.00000000</i>
   <i name="ENAUG">    345.27800000</i>
   <i name="EDIFF">      0.00001000</i>
   <i type="int" name="IALGO">    68</i>
   <i type="int" name="IWAVPR">    10</i>
   <i type="int" name="NBANDS">    22</i>
   <i name="NELECT">     36.00000000</i>
   <i type="int" name="TURBO">     0</i>
   <i type="int" name="IRESTART">     0</i>
   <i type="int" name="NREBOOT">     0</i>
   <i type="int" name="NMIN">     0</i>
   <i name="EREF">      0.00000000</i>
   <separator name="electronic smearing" >
    <i type="int" name="ISMEAR">    -5</i>
    <i name="SIGMA">      0.20000000</i>
    <i name="KSPACING">      0.50000000</i>
    <i type="logical" name="KGAMMA"> T  </i>
   </separator>
   <separator name="electronic projectors" >
    <i type="logical" name="LREAL"> F  </i>
    <v name="ROPT">      0.00000000      0.00000000</v>
    <i type="int" name="LMAXPAW">  -100</i>
    <i type="int" name="LMAXMIX">     2</i>
    <i type="logical" name="NLSPLINE"> F  </i>
   </separator>
   <separator name="electronic startup" >
    <i type="int" name="ISTART">     0</i>
    <i type="int" name="ICHARG">     2</i>
    <i type="int" name="INIWAV">     1</i>
   </separator>
   <separator name="electronic spin" >
    <i type="int" name="ISPIN">     1</i>
    <i type="logical" name="LNONCOLLINEAR"> F  </i>
    <v name="MAGMOM">      1.00000000      1.00000000      1.00000000      1.00000000      1.00000000      1.00000000</v>
    <i name="NUPDOWN">     -1.00000000</i>
    <i type="logical" name="LSORBIT"> F  </i>
    <v name="SAXIS">      0.00000000      0.00000000      1.00000000</v>
    <i type="logical" name="LSPIRAL"> F  </i>
    <v name="QSPIRAL">      0.00000000      0.00000000      0.00000000</v>
    <i type="logical" name="LZEROZ"> F  </i>
   </separator>
   <separator name="electronic exchange-correlation" >
    <i type="logical" name="LASPH"> F  </i>
    <i type="logical" name="LMETAGGA"> F  </i>
   </separator>
   <separator name="electronic convergence" >
    <i type="int" name="NELM">    60</i>
    <i type="int" name="NELMDL">     0</i>
    <i type="int" name="NELMIN">     4</i>
    <i name="ENINI">    400.00000000</i>
    <separator name="electronic convergence detail" >
     <i type="logical" name="LDIAG"> T  </i>
     <i type="logical" name="LSUBROT"> F  </i>
     <i name="WEIMIN">      0.00000000</i>
     <i name="EBREAK">      0.00000011</i>
     <i name="DEPER">      0.30000000</i>
     <i type="int" name="NRMM">     4</i>
     <i name="TIME">      0.40000000</i>
    </separator>
   </separator>
   <separator name="electronic mixer" >
    <i name="AMIX">      0.40000000</i>
    <i name="BMIX">      1.00000000</i>
    <i name="AMIN">      0.10000000</i>
    <i name="AMIX_MAG">      1.60000000</i>
    <i name="BMIX_MAG">      1.00000000</i>
    <separator name="electronic mixer details" >
     <i type="int" name="IMIX">     4</i>
     <i type="logical" name="MIXFIRST"> F  </i>
     <i type="int" name="MAXMIX">   -45</i>
     <i name="WC">    100.00000000</i>
     <i type="int" name="INIMIX">     1</i>
     <i type="int" name="MIXPRE">     1</i>
     <i type="int" name="MREMOVE">     5</i>
    </separator>
   </separator>
   <separator name="electronic dipolcorrection" >
    <i type="logical" name="LDIPOL"> F  </i>
    <i type="logical" name="LMONO"> F  </i>
    <i type="int" name="IDIPOL">     0</i>
    <i name="EPSILON">      1.00000000</i>
    <v name="DIPOL">   -100.00000000   -100.00000000   -100.00000000</v>
    <i name="EFIELD">      0.00000000</i>
   </separator>
  </separator>
  <separator name="grids" >
   <i type="int" name="NGX">    16</i>
   <i type="int" name="NGY">    16</i>
   <i type="int" name="NGZ">    80</i>
   <i type="int" name="NGXF">    32</i>
   <i type="int" name="NGYF">    32</i>
   <i type="int" name="NGZF">   160</i>
   <i type="logical" name="ADDGRID"> F  </i>
  </separator>
  <separator name="ionic" >
   <i type="int" name="NSW">     0</i>
   <i type="int" name="IBRION">    -1</i>
   <i type="int" name="MDALGO">     0</i>
   <i type="int" name="ISIF">     2</i>
   <i name="PSTRESS">      0.00000000</i>
   <i name="EDIFFG">      0.00010000</i>
   <i type="int" name="NFREE">     0</i>
   <i name="POTIM">      0.50000000</i>
   <i name="SMASS">     -3.00000000</i>
   <i name="SCALEE">      1.00000000</i>
  </separator>
  <separator name="ionic md" >
   <i name="TEBEG">      0.00010000</i>
   <i name="TEEND">      0.00010000</i>
   <i type="int" name="NBLOCK">     1</i>
   <i type="int" name="KBLOCK">     1</i>
   <i type="int" name="NPACO">   256</i>
   <i name="APACO">     16.00000000</i>
  </separator>
  <separator name="symmetry" >
   <i type="int" name="ISYM">     2</i>
   <i name="SYMPREC">      0.00001000</i>
  </separator>
  <separator name="dos" >
   <i type="int" name="LORBIT">     0</i>
   <v name="RWIGS">     -1.00000000     -1.00000000</v>
   <i type="int" name="NEDOS">   301</i>
   <i name="EMIN">     10.00000000</i>
   <i name="EMAX">    -10.00000000</i>
   <i name="EFERMI">      0.00000000</i>
  </separator>
  <separator name="writing" >
   <i type="int" name="NWRITE">     2</i>
   <i type="logical" name="LWAVE"> F  </i>
   <i type="logical" name="LDOWNSAMPLE"> F  </i>
   <i type="logical" name="LCHARG"> T  </i>
   <i type="logical" name="LPARD"> F  </i>
   <i type="logical" name="LVTOT"> F  </i>
   <i type="logical" name="LVHAR"> F  </i>
   <i type="logical" name="LELF"> F  </i>
   <i type="logical" name="LOPTICS"> F  </i>
   <v name="STM">      0.00000000      0.00000000      0.00000000      0.00000000      0.00000000      0.00000000      0.00000000</v>
  </separator>
  <separator name="performance" >
   <i type="int" name="NPAR">     2</i>
   <i type="int" name="NSIM">     4</i>
   <i type="int" name="NBLK">    -1</i>
   <i type="logical" name="LPLANE"> T  </i>
   <i type="logical" name="LSCALAPACK"> T  </i>
   <i type="logical" name="LSCAAWARE"> F  </i>
   <i type="logical" name="LSCALU"> F  </i>
   <i type="logical" name="LASYNC"> F  </i>
   <i type="logical" name="LORBITALREAL"> F  </i>
  </separator>
  <separator name="miscellaneous" >
   <i type="int" name="IDIOT">     3</i>
   <i type="int" name="ISPECIAL">     0</i>
   <i type="logical" name="LMUSIC"> F  </i>
   <v name="POMASS">     95.94000000     32.06600000</v>
   <v name="DARWINR">      0.00000000      0.00000000</v>
   <v name="DARWINV">      1.00000000      1.00000000</v>
   <i type="logical" name="LCORR"> T  </i>
  </separator>
  <i type="logical" name="GGA_COMPAT"> T  </i>
  <i type="logical" name="LBERRY"> F  </i>
  <i type="int" name="ICORELEVEL">     0</i>
  <i type="logical" name="LDAU"> F  </i>
  <i type="int" name="I_CONSTRAINED_M">     0</i>
  <separator name="electronic exchange-correlation" >
   <i type="string" name="GGA">--</i>
   <i type="int" name="VOSKOWN">     0</i>
   <i type="logical" name="LHFCALC"> F  </i>
   <i type="string" name="PRECFOCK"></i>
   <i type="logical" name="LSYMGRAD"> F  </i>
   <i type="logical" name="LHFONE"> F  </i>
   <i type="logical" name="LRHFCALC"> F  </i>
   <i type="logical" name="LTHOMAS"> F  </i>
   <i type="logical" name="LMODELHF"> F  </i>
   <i name="ENCUT4O">     -1.00000000</i>
   <i type="int" name="EXXOEP">     0</i>
   <i type="int" name="FOURORBIT">     0</i>
   <i name="AEXX">      0.00000000</i>
   <i name="HFALPHA">      0.00000000</i>
   <i name="MCALPHA">      0.00000000</i>
   <i name="ALDAX">      1.00000000</i>
   <i name="AGGAX">      1.00000000</i>
   <i name="ALDAC">      1.00000000</i>
   <i name="AGGAC">      1.00000000</i>
   <i type="int" name="NKREDX">     1</i>
   <i type="int" name="NKREDY">     1</i>
   <i type="int" name="NKREDZ">     1</i>
   <i type="logical" name="SHIFTRED"> F  </i>
   <i type="logical" name="ODDONLY"> F  </i>
   <i type="logical" name="EVENONLY"> F  </i>
   <i type="int" name="LMAXFOCK">     0</i>
   <i type="int" name="NMAXFOCKAE">     0</i>
   <i type="logical" name="LFOCKAEDFT"> F  </i>
   <i name="HFSCREEN">      0.00000000</i>
   <i name="HFSCREENC">      0.00000000</i>
   <i type="int" name="NBANDSGWLOW">     0</i>
  </separator>
  <separator name="vdW DFT" >
   <i type="logical" name="LUSE_VDW"> F  </i>
   <i name="Zab_VDW">     -0.84910000</i>
   <i name="PARAM1">      0.12340000</i>
   <i name="PARAM2">      1.00000000</i>
   <i name="PARAM3">      0.00000000</i>
  </separator>
  <separator name="model GW" >
   <i type="int" name="MODEL_GW">     0</i>
   <i name="MODEL_EPS0">     13.11510680</i>
   <i name="MODEL_ALPHA">      1.00000000</i>
  </separator>
  <separator name="linear response parameters" >
   <i type="logical" name="LEPSILON"> F  </i>
   <i type="logical" name="LRPA"> F  </i>
   <i type="logical" name="LNABLA"> F  </i>
   <i type="logical" name="LVEL"> F  </i>
   <i type="int" name="KINTER">     0</i>
   <i name="CSHIFT">      0.10000000</i>
   <i name="OMEGAMAX">     -1.00000000</i>
   <i name="DEG_THRESHOLD">      0.00200000</i>
   <i name="RTIME">     -0.10000000</i>
   <i name="WPLASMAI">      0.00000000</i>
   <v name="DFIELD">      0.00000000      0.00000000      0.00000000</v>
   <v name="WPLASMA">      0.00000000      0.00000000      0.00000000      0.00000000      0.00000000      0.00000000      0.00000000      0.00000000      0.00000000</v>
  </separator>
  <separator name="orbital magnetization" >
   <i type="logical" name="NUCIND"> F  </i>
   <v name="MAGPOS">      0.00000000      0.00000000      0.00000000</v>
   <i type="logical" name="LNICSALL"> T  </i>
   <i type="logical" name="ORBITALMAG"> F  </i>
   <i type="logical" name="LMAGBLOCH"> F  </i>
   <i type="logical" name="LCHIMAG"> F  </i>
   <i type="logical" name="LGAUGE"> T  </i>
   <i type="int" name="MAGATOM">     0</i>
   <v name="MAGDIPOL">      0.00000000      0.00000000      0.00000000</v>
   <v name="AVECCONST">      0.00000000      0.00000000      0.00000000</v>
  </separator>
  <separator name="response functions" >
   <i type="logical" name="LADDER"> F  </i>
   <i type="logical" name="LRPAFORCE"> F  </i>
   <i type="logical" name="LFXC"> F  </i>
   <i type="logical" name="LHARTREE"> T  </i>
   <i type="int" name="IBSE">     0</i>
   <v type="int" name="KPOINT">    -1     0     0     0</v>
   <i type="logical" name="LTCTE"> F  </i>
   <i type="logical" name="LTETE"> F  </i>
   <i type="logical" name="LTRIPLET"> F  </i>
   <i type="logical" name="LFXCEPS"> F  </i>
   <i type="logical" name="LFXHEG"> F  </i>
   <i type="int" name="NATURALO">     2</i>
   <i type="logical" name="L2ORDER"> F  </i>
   <i type="logical" name="LMP2LT"> F  </i>
   <i type="logical" name="LUSEW"> F  </i>
   <i name="ENCUTGW">     -2.00000000</i>
   <i name="ENCUTGWSOFT">     -2.00000000</i>
   <i name="ENCUTLF">     -1.00000000</i>
   <i type="int" name="LMAXMP2">    -1</i>
   <i name="SCISSOR">      0.00000000</i>
   <i type="int" name="NOMEGA">     0</i>
   <i type="int" name="NOMEGAR">     0</i>
   <i type="int" name="NBANDSGW">    -1</i>
   <i type="int" name="NBANDSO">    -1</i>
   <i type="int" name="NBANDSV">    -1</i>
   <i type="int" name="NELM">     1</i>
   <i type="int" name="NELMHF">     1</i>
   <i type="int" name="DIM">     3</i>
   <i type="int" name="ANTIRES">     0</i>
   <i name="OMEGAMAX">    -30.00000000</i>
   <i name="OMEGAMIN">    -30.00000000</i>
   <i name="OMEGATL">   -200.00000000</i>
   <i type="int" name="OMEGAGRID">   140</i>
   <i name="CSHIFT">     -0.10000000</i>
   <i type="logical" name="SELFENERGY"> F  </i>
   <i type="logical" name="LSPECTRAL"> F  </i>
   <i type="logical" name="LSPECTRALGW"> F  </i>
   <i type="logical" name="LSINGLES"> F  </i>
   <i type="logical" name="LFERMIGW"> F  </i>
   <i type="logical" name="ODDONLYGW"> F  </i>
   <i type="logical" name="EVENONLYGW"> F  </i>
   <i type="int" name="NKREDLFX">     1</i>
   <i type="int" name="NKREDLFY">     1</i>
   <i type="int" name="NKREDLFZ">     1</i>
   <i type="int" name="MAXMEM">  2800</i>
   <i type="int" name="TELESCOPE">     0</i>
   <i type="int" name="TAUPAR">     1</i>
   <i type="int" name="OMEGAPAR">    -1</i>
   <i name="LAMBDA">      1.00000000</i>
  </separator>
  <separator name="External order field" >
   <i name="OFIELD_KAPPA">      0.00000000</i>
   <v name="OFIELD_K">      0.00000000      0.00000000      0.00000000</v>
   <i name="OFIELD_Q6_NEAR">      0.00000000</i>
   <i name="OFIELD_Q6_FAR">      0.00000000</i>
   <i name="OFIELD_A">      0.00000000</i>
  </separator>
 </parameters>
 <atominfo>
  <atoms>       6 </atoms>
  <types>       2 </types>
  <array name="atoms" >
   <dimension dim="1">ion</dimension>
   <field type="string">element</field>
   <field type="int">atomtype</field>
   <set>
    <rc><c>Mo</c><c>   1</c></rc>
    <rc><c>Mo</c><c>   1</c></rc>
    <rc><c>S </c><c>   2</c></rc>
    <rc><c>S </c><c>   2</c></rc>
    <rc><c>S </c><c>   2</c></rc>
    <rc><c>S </c><c>   2</c></rc>
   </set>
  </array>
  <array name="atomtypes" >
   <dimension dim="1">type</dimension>
   <field type="int">atomspertype</field>
   <field type="string">element</field>
   <field>mass</field>
   <field>valence</field>
   <field type="string">pseudopotential</field>
   <set>
    <rc><c>   2</c><c>Mo</c><c>     95.94000000</c><c>      6.00000000</c><c> PAW_PBE Mo 08Apr2002                   </c></rc>
    <rc><c>   4</c><c>S </c><c>     32.06600000</c><c>      6.00000000</c><c>  PAW_PBE S 17Jan2003                   </c></rc>
   </set>
  </array>
 </atominfo>
 <structure name="initialpos" >
  <crystal>
   <varray name="basis" >
    <v>       3.19031573       0.00000000       0.00000000 </v>
    <v>      -1.59515786       2.76289447       0.00000000 </v>
    <v>       0.00000000       0.00000000      14.87900430 </v>
   </varray>
   <i name="volume">    131.15106795 </i>
   <varray name="rec_basis" >
    <v>       0.31344860       0.18096963       0.00000000 </v>
    <v>       0.00000000       0.36193927       0.00000000 </v>
    <v>       0.00000000       0.00000000       0.06720880 </v>
   </varray>
  </crystal>
  <varray name="positions" >
   <v>       0.33333300       0.66666700       0.25000000 </v>
   <v>       0.66666700       0.33333300       0.75000000 </v>
   <v>       0.33333300       0.66666700       0.85517400 </v>
   <v>       0.66666700       0.33333300       0.14482600 </v>
   <v>       0.66666600       0.33333300       0.35517400 </v>
   <v>       0.33333400       0.66666700       0.64482600 </v>
  </varray>
 </structure>
 <calculation>
  <scstep>
   <time name="dav">    0.33    0.33</time>
   <time name="total">    0.36    0.39</time>
   <energy>
    <i name="alphaZ">     90.42577596 </i>
    <i name="ewald">  -1146.88905665 </i>
    <i name="hartreedc">   -535.10238362 </i>
    <i name="XCdc">    -72.59368032 </i>
    <i name="pawpsdc">    813.77302396 </i>
    <i name="pawaedc">   -658.68146406 </i>
    <i name="eentropy">      0.00000000 </i>
    <i name="bandstr">    152.10554270 </i>
    <i name="atom">   1542.30469024 </i>
    <i name="e_fr_energy">    185.34244822 </i>
    <i name="e_wo_entrp">    185.34244822 </i>
    <i name="e_0_energy">    185.34244822 </i>
   </energy>
  </scstep>
  <scstep>
   <time name="dav">    0.40    0.40</time>
   <time name="total">    0.40    0.40</time>
   <energy>
    <i name="e_fr_energy">    -30.51158533 </i>
    <i name="e_wo_entrp">    -30.51158533 </i>
    <i name="e_0_energy">    -30.51158533 </i>
   </energy>
  </scstep>
  <scstep>
   <time name="dav">    0.40    0.40</time>
   <time name="total">    0.40    0.40</time>
   <energy>
    <i name="e_fr_energy">    -46.25948544 </i>
    <i name="e_wo_entrp">    -46.25948544 </i>
    <i name="e_0_energy">    -46.25948544 </i>
   </energy>
  </scstep>
  <scstep>
   <time name="dav">    0.43    0.43</time>
   <time name="total">    0.43    0.43</time>
   <energy>
    <i name="e_fr_energy">    -46.80812428 </i>
    <i name="e_wo_entrp">    -46.80812428 </i>
    <i name="e_0_energy">    -46.80812428 </i>
   </energy>
  </scstep>
  <scstep>
   <time name="dav">    0.40    0.40</time>
   <time name="total">    0.42    0.42</time>
   <energy>
    <i name="e_fr_energy">    -46.81894076 </i>
    <i name="e_wo_entrp">    -46.81894076 </i>
    <i name="e_0_energy">    -46.81894076 </i>
   </energy>
  </scstep>
  <scstep>
   <time name="diag">    0.06    0.07</time>
   <time name="diis">    0.26    0.26</time>
   <time name="orth">    0.01    0.01</time>
   <time name="total">    0.39    0.39</time>
   <energy>
    <i name="e_fr_energy">    -44.43609880 </i>
    <i name="e_wo_entrp">    -44.43609880 </i>
    <i name="e_0_energy">    -44.43609880 </i>
   </energy>
  </scstep>
  <scstep>
   <time name="diag">    0.07    0.07</time>
   <time name="diis">    0.26    0.26</time>
   <time name="orth">    0.01    0.01</time>
   <time name="total">    0.39    0.39</time>
   <energy>
    <i name="e_fr_energy">    -43.69437331 </i>
    <i name="e_wo_entrp">    -43.69437331 </i>
    <i name="e_0_energy">    -43.69437331 </i>
   </energy>
  </scstep>
  <scstep>
   <time name="diag">    0.06    0.07</time>
   <time name="diis">    0.27    0.27</time>
   <time name="orth">    0.01    0.01</time>
   <time name="total">    0.40    0.40</time>
   <energy>
    <i name="e_fr_energy">    -43.62931018 </i>
    <i name="e_wo_entrp">    -43.62931018 </i>
    <i name="e_0_energy">    -43.62931018 </i>
   </energy>
  </scstep>
  <scstep>
   <time name="diag">    0.06    0.06</time>
   <time name="diis">    0.28    0.28</time>
   <time name="orth">    0.01    0.01</time>
   <time name="total">    0.40    0.41</time>
   <energy>
    <i name="e_fr_energy">    -43.61985179 </i>
    <i name="e_wo_entrp">    -43.61985179 </i>
    <i name="e_0_energy">    -43.61985179 </i>
   </energy>
  </scstep>
  <scstep>
   <time name="diag">    0.06    0.06</time>
   <time name="diis">    0.29    0.29</time>
   <time name="orth">    0.01    0.01</time>
   <time name="total">    0.41    0.41</time>
   <energy>
    <i name="e_fr_energy">    -43.60409470 </i>
    <i name="e_wo_entrp">    -43.60409470 </i>
    <i name="e_0_energy">    -43.60409470 </i>
   </energy>
  </scstep>
  <scstep>
   <time name="diag">    0.06    0.07</time>
   <time name="diis">    0.29    0.29</time>
   <time name="orth">    0.01    0.01</time>
   <time name="total">    0.42    0.42</time>
   <energy>
    <i name="e_fr_energy">    -43.60404714 </i>
    <i name="e_wo_entrp">    -43.60404714 </i>
    <i name="e_0_energy">    -43.60404714 </i>
   </energy>
  </scstep>
  <scstep>
   <time name="diag">    0.07    0.07</time>
   <time name="diis">    0.30    0.30</time>
   <time name="orth">    0.01    0.01</time>
   <time name="total">    0.42    0.42</time>
   <energy>
    <i name="e_fr_energy">    -43.60419583 </i>
    <i name="e_wo_entrp">    -43.60419583 </i>
    <i name="e_0_energy">    -43.60419583 </i>
   </energy>
  </scstep>
  <scstep>
   <time name="diag">    0.06    0.07</time>
   <time name="diis">    0.30    0.30</time>
   <time name="orth">    0.01    0.01</time>
   <time name="total">    0.43    0.43</time>
   <energy>
    <i name="e_fr_energy">    -43.60420235 </i>
    <i name="e_wo_entrp">    -43.60420235 </i>
    <i name="e_0_energy">    -43.60420235 </i>
   </energy>
  </scstep>
  <scstep>
   <time name="diag">    0.06    0.07</time>
   <time name="diis">    0.24    0.24</time>
   <time name="orth">    0.01    0.01</time>
   <time name="total">    0.36    0.36</time>
   <energy>
    <i name="e_fr_energy">    -43.60418835 </i>
    <i name="e_wo_entrp">    -43.60418835 </i>
    <i name="e_0_energy">    -43.60418835 </i>
   </energy>
  </scstep>
  <scstep>
   <time name="diag">    0.06    0.07</time>
   <time name="diis">    0.19    0.19</time>
   <time name="orth">    0.01    0.01</time>
   <time name="total">    0.29    0.29</time>
   <energy>
    <i name="alphaZ">     90.42577596 </i>
    <i name="ewald">  -1146.88905665 </i>
    <i name="hartreedc">   -542.94890772 </i>
    <i name="XCdc">    -70.39762354 </i>
    <i name="pawpsdc">    944.22026745 </i>
    <i name="pawaedc">   -792.60090135 </i>
    <i name="eentropy">      0.00000000 </i>
    <i name="bandstr">    -67.71843322 </i>
    <i name="atom">   1542.30469024 </i>
    <i name="e_fr_energy">    -43.60418883 </i>
    <i name="e_wo_entrp">    -43.60418883 </i>
    <i name="e_0_energy">    -43.60418883 </i>
   </energy>
  </scstep>
  <structure>
   <crystal>
    <varray name="basis" >
     <v>       3.19031573       0.00000000       0.00000000 </v>
     <v>      -1.59515786       2.76289447       0.00000000 </v>
     <v>       0.00000000       0.00000000      14.87900430 </v>
    </varray>
    <i name="volume">    131.15106795 </i>
    <varray name="rec_basis" >
     <v>       0.31344860       0.18096963       0.00000000 </v>
     <v>       0.00000000       0.36193927       0.00000000 </v>
     <v>       0.00000000       0.00000000       0.06720880 </v>
    </varray>
   </crystal>
   <varray name="positions" >
    <v>       0.33333300       0.66666700       0.25000000 </v>
    <v>       0.66666700       0.33333300       0.75000000 </v>
    <v>       0.33333300       0.66666700       0.85517400 </v>
    <v>       0.66666700       0.33333300       0.14482600 </v>
    <v>       0.66666600       0.33333300       0.35517400 </v>
    <v>       0.33333400       0.66666700       0.64482600 </v>
   </varray>
  </structure>
  <varray name="forces" >
   <v>      -0.00000000      -0.00000000       0.00000000 </v>
   <v>       0.00000000      -0.00000000       0.00000000 </v>
   <v>      -0.00000000       0.00000000      -0.08403043 </v>
   <v>       0.00000000      -0.00000000       0.08403043 </v>
   <v>       0.00000000       0.00000000      -0.08403043 </v>
   <v>      -0.00000000       0.00000000       0.08403043 </v>
  </varray>
  <varray name="stress" >
   <v>      -5.07281722       0.00000000       0.00000000 </v>
   <v>       0.00000000      -5.07281722      -0.00000000 </v>
   <v>       0.00000000      -0.00000000     -16.51024677 </v>
  </varray>
  <energy>
   <i name="e_fr_energy">    -44.93547585 </i>
   <i name="e_wo_entrp">    -44.93547585 </i>
   <i name="e_0_energy">      0.00000000 </i>
  </energy>
  <time name="totalsc">    6.57    6.68</time>
  <eigenvalues>
   <array>
    <dimension dim="1">band</dimension>
    <dimension dim="2">kpoint</dimension>
    <dimension dim="3">spin</dimension>
    <field>eigene</field>
    <field>occ</field>
    <set>
     <set comment="spin 1">
      <set comment="kpoint 1">
       <r>  -10.9295    1.0000 </r>
       <r>  -10.9104    1.0000 </r>
       <r>   -9.7290    1.0000 </r>
       <r>   -9.6950    1.0000 </r>
       <r>   -2.5231    1.0000 </r>
       <r>   -2.3616    1.0000 </r>
       <r>    0.5202    1.0000 </r>
       <r>    0.5202    1.0000 </r>
       <r>    0.5207    1.0000 </r>
       <r>    0.5207    1.0000 </r>
       <r>    1.1065    1.0000 </r>
       <r>    1.6251    1.0000 </r>
       <r>    1.6252    1.0000 </r>
       <r>    1.6271    1.0000 </r>
       <r>    1.6272    1.0000 </r>
       <r>    1.6750    1.0000 </r>
       <r>    2.9226    1.0000 </r>
       <r>    3.2986    1.0000 </r>
       <r>    5.8750    0.0000 </r>
       <r>    5.8848    0.0000 </r>
       <r>    5.9035    0.0000 </r>
       <r>    5.9543    0.0000 </r>
      </set>
      <set comment="kpoint 2">
       <r>  -10.7151    1.0000 </r>
       <r>  -10.6965    1.0000 </r>
       <r>   -9.6253    1.0000 </r>
       <r>   -9.5939    1.0000 </r>
       <r>   -2.2772    1.0000 </r>
       <r>   -2.1183    1.0000 </r>
       <r>    0.0557    1.0000 </r>
       <r>    0.0584    1.0000 </r>
       <r>    0.4570    1.0000 </r>
       <r>    0.6732    1.0000 </r>
       <r>    0.7543    1.0000 </r>
       <r>    0.7555    1.0000 </r>
       <r>    1.2891    1.0000 </r>
       <r>    1.2917    1.0000 </r>
       <r>    1.9311    1.0000 </r>
       <r>    2.2151    1.0000 </r>
       <r>    2.8436    1.0000 </r>
       <r>    3.0857    1.0000 </r>
       <r>    5.5305    0.0000 </r>
       <r>    5.6317    0.0000 </r>
       <r>    5.7030    0.0000 </r>
       <r>    5.8100    0.0000 </r>
      </set>
      <set comment="kpoint 3">
       <r>  -10.1454    1.0000 </r>
       <r>  -10.1287    1.0000 </r>
       <r>   -9.3530    1.0000 </r>
       <r>   -9.3286    1.0000 </r>
       <r>   -1.8873    1.0000 </r>
       <r>   -1.7764    1.0000 </r>
       <r>   -0.6910    1.0000 </r>
       <r>   -0.6475    1.0000 </r>
       <r>   -0.4607    1.0000 </r>
       <r>   -0.3592    1.0000 </r>
       <r>    0.6537    1.0000 </r>
       <r>    0.6572    1.0000 </r>
       <r>    1.3403    1.0000 </r>
       <r>    1.3438    1.0000 </r>
       <r>    1.7046    1.0000 </r>
       <r>    1.9134    1.0000 </r>
       <r>    2.3701    1.0000 </r>
       <r>    2.4186    1.0000 </r>
       <r>    5.1189    0.0000 </r>
       <r>    5.4386    0.0000 </r>
       <r>    5.4399    0.0000 </r>
       <r>    5.4564    0.0000 </r>
      </set>
      <set comment="kpoint 4">
       <r>   -9.4678    1.0000 </r>
       <r>   -9.4560    1.0000 </r>
       <r>   -9.0394    1.0000 </r>
       <r>   -9.0251    1.0000 </r>
       <r>   -2.2847    1.0000 </r>
       <r>   -2.2500    1.0000 </r>
       <r>   -1.2970    1.0000 </r>
       <r>   -1.2540    1.0000 </r>
       <r>   -0.8460    1.0000 </r>
       <r>   -0.7610    1.0000 </r>
       <r>    0.1561    1.0000 </r>
       <r>    0.1601    1.0000 </r>
       <r>    1.3426    1.0000 </r>
       <r>    1.4502    1.0000 </r>
       <r>    1.9284    1.0000 </r>
       <r>    1.9370    1.0000 </r>
       <r>    2.1738    1.0000 </r>
       <r>    2.2245    1.0000 </r>
       <r>    5.2596    0.0000 </r>
       <r>    5.2687    0.0000 </r>
       <r>    5.4545    0.0000 </r>
       <r>    5.6332    0.0000 </r>
      </set>
      <set comment="kpoint 5">
       <r>   -9.1369    1.0000 </r>
       <r>   -9.1304    1.0000 </r>
       <r>   -8.8921    1.0000 </r>
       <r>   -8.8856    1.0000 </r>
       <r>   -2.6132    1.0000 </r>
       <r>   -2.5862    1.0000 </r>
       <r>   -1.6523    1.0000 </r>
       <r>   -1.6278    1.0000 </r>
       <r>   -0.9678    1.0000 </r>
       <r>   -0.8919    1.0000 </r>
       <r>   -0.0245    1.0000 </r>
       <r>   -0.0204    1.0000 </r>
       <r>    1.2472    1.0000 </r>
       <r>    1.2667    1.0000 </r>
       <r>    2.1539    1.0000 </r>
       <r>    2.1660    1.0000 </r>
       <r>    2.4775    1.0000 </r>
       <r>    2.4813    1.0000 </r>
       <r>    5.2844    0.0000 </r>
       <r>    5.2881    0.0000 </r>
       <r>    5.7743    0.0000 </r>
       <r>    5.8289    0.0000 </r>
      </set>
      <set comment="kpoint 6">
       <r>  -10.3217    1.0000 </r>
       <r>  -10.3042    1.0000 </r>
       <r>   -9.4359    1.0000 </r>
       <r>   -9.4092    1.0000 </r>
       <r>   -1.9204    1.0000 </r>
       <r>   -1.7807    1.0000 </r>
       <r>   -0.5131    1.0000 </r>
       <r>   -0.5005    1.0000 </r>
       <r>   -0.0645    1.0000 </r>
       <r>    0.0776    1.0000 </r>
       <r>    0.4645    1.0000 </r>
       <r>    0.4906    1.0000 </r>
       <r>    1.0935    1.0000 </r>
       <r>    1.0953    1.0000 </r>
       <r>    2.0964    1.0000 </r>
       <r>    2.2988    1.0000 </r>
       <r>    2.5524    1.0000 </r>
       <r>    2.6280    1.0000 </r>
       <r>    5.0625    0.0000 </r>
       <r>    5.3246    0.0000 </r>
       <r>    5.5373    0.0000 </r>
       <r>    5.5494    0.0000 </r>
      </set>
      <set comment="kpoint 7">
       <r>   -9.6864    1.0000 </r>
       <r>   -9.6723    1.0000 </r>
       <r>   -9.1330    1.0000 </r>
       <r>   -9.1148    1.0000 </r>
       <r>   -1.9390    1.0000 </r>
       <r>   -1.8859    1.0000 </r>
       <r>   -0.9505    1.0000 </r>
       <r>   -0.9193    1.0000 </r>
       <r>   -0.7079    1.0000 </r>
       <r>   -0.6344    1.0000 </r>
       <r>   -0.0661    1.0000 </r>
       <r>    0.0087    1.0000 </r>
       <r>    1.1909    1.0000 </r>
       <r>    1.1968    1.0000 </r>
       <r>    1.7878    1.0000 </r>
       <r>    1.8743    1.0000 </r>
       <r>    2.3027    1.0000 </r>
       <r>    2.3125    1.0000 </r>
       <r>    4.9962    0.0000 </r>
       <r>    5.2127    0.0000 </r>
       <r>    5.5449    0.0000 </r>
       <r>    5.6392    0.0000 </r>
      </set>
      <set comment="kpoint 8">
       <r>   -9.1527    1.0000 </r>
       <r>   -9.1450    1.0000 </r>
       <r>   -8.8841    1.0000 </r>
       <r>   -8.8758    1.0000 </r>
       <r>   -2.3259    1.0000 </r>
       <r>   -2.2990    1.0000 </r>
       <r>   -1.7016    1.0000 </r>
       <r>   -1.6925    1.0000 </r>
       <r>   -0.8374    1.0000 </r>
       <r>   -0.7668    1.0000 </r>
       <r>   -0.0666    1.0000 </r>
       <r>   -0.0242    1.0000 </r>
       <r>    1.2006    1.0000 </r>
       <r>    1.2169    1.0000 </r>
       <r>    1.3290    1.0000 </r>
       <r>    1.3673    1.0000 </r>
       <r>    2.6251    1.0000 </r>
       <r>    2.6434    1.0000 </r>
       <r>    5.2708    0.0000 </r>
       <r>    5.3350    0.0000 </r>
       <r>    5.7783    0.0000 </r>
       <r>    5.8547    0.0000 </r>
      </set>
      <set comment="kpoint 9">
       <r>   -9.1681    1.0000 </r>
       <r>   -9.1595    1.0000 </r>
       <r>   -8.8759    1.0000 </r>
       <r>   -8.8660    1.0000 </r>
       <r>   -1.9666    1.0000 </r>
       <r>   -1.9381    1.0000 </r>
       <r>   -1.7530    1.0000 </r>
       <r>   -1.7418    1.0000 </r>
       <r>   -0.4876    1.0000 </r>
       <r>   -0.4631    1.0000 </r>
       <r>   -0.1386    1.0000 </r>
       <r>   -0.0503    1.0000 </r>
       <r>    0.2153    1.0000 </r>
       <r>    0.2379    1.0000 </r>
       <r>    1.4769    1.0000 </r>
       <r>    1.4876    1.0000 </r>
       <r>    2.6010    1.0000 </r>
       <r>    2.6108    1.0000 </r>
       <r>    5.1857    0.0000 </r>
       <r>    5.3139    0.0000 </r>
       <r>    5.8456    0.0000 </r>
       <r>    6.0925    0.0000 </r>
      </set>
      <set comment="kpoint 10">
       <r>   -8.9305    1.0000 </r>
       <r>   -8.9274    1.0000 </r>
       <r>   -8.7533    1.0000 </r>
       <r>   -8.7502    1.0000 </r>
       <r>   -2.1372    1.0000 </r>
       <r>   -2.1264    1.0000 </r>
       <r>   -1.7912    1.0000 </r>
       <r>   -1.7751    1.0000 </r>
       <r>   -0.7775    1.0000 </r>
       <r>   -0.7402    1.0000 </r>
       <r>   -0.1064    1.0000 </r>
       <r>   -0.0855    1.0000 </r>
       <r>    0.1076    1.0000 </r>
       <r>    0.1586    1.0000 </r>
       <r>    1.0763    1.0000 </r>
       <r>    1.1162    1.0000 </r>
       <r>    2.9626    1.0000 </r>
       <r>    2.9838    1.0000 </r>
       <r>    4.9238    0.0000 </r>
       <r>    4.9327    0.0000 </r>
       <r>    6.1512    0.0000 </r>
       <r>    6.3248    0.0000 </r>
      </set>
      <set comment="kpoint 11">
       <r>  -10.9201    1.0000 </r>
       <r>  -10.9201    1.0000 </r>
       <r>   -9.7119    1.0000 </r>
       <r>   -9.7119    1.0000 </r>
       <r>   -2.4451    1.0000 </r>
       <r>   -2.4451    1.0000 </r>
       <r>    0.5204    1.0000 </r>
       <r>    0.5204    1.0000 </r>
       <r>    0.5204    1.0000 </r>
       <r>    0.5204    1.0000 </r>
       <r>    1.3633    1.0000 </r>
       <r>    1.3633    1.0000 </r>
       <r>    1.6261    1.0000 </r>
       <r>    1.6261    1.0000 </r>
       <r>    1.6261    1.0000 </r>
       <r>    1.6261    1.0000 </r>
       <r>    3.1412    1.0000 </r>
       <r>    3.1412    1.0000 </r>
       <r>    5.8746    0.0000 </r>
       <r>    5.8889    0.0000 </r>
       <r>    5.9404    0.0000 </r>
       <r>    6.0890    0.0000 </r>
      </set>
      <set comment="kpoint 12">
       <r>  -10.7059    1.0000 </r>
       <r>  -10.7059    1.0000 </r>
       <r>   -9.6095    1.0000 </r>
       <r>   -9.6095    1.0000 </r>
       <r>   -2.2008    1.0000 </r>
       <r>   -2.2008    1.0000 </r>
       <r>    0.0567    1.0000 </r>
       <r>    0.0567    1.0000 </r>
       <r>    0.5718    1.0000 </r>
       <r>    0.5718    1.0000 </r>
       <r>    0.7549    1.0000 </r>
       <r>    0.7549    1.0000 </r>
       <r>    1.2904    1.0000 </r>
       <r>    1.2904    1.0000 </r>
       <r>    2.0433    1.0000 </r>
       <r>    2.0434    1.0000 </r>
       <r>    2.9906    1.0000 </r>
       <r>    2.9906    1.0000 </r>
       <r>    5.5739    0.0000 </r>
       <r>    5.5796    0.0000 </r>
       <r>    5.7124    0.0000 </r>
       <r>    5.8526    0.0000 </r>
      </set>
      <set comment="kpoint 13">
       <r>  -10.1372    1.0000 </r>
       <r>  -10.1371    1.0000 </r>
       <r>   -9.3406    1.0000 </r>
       <r>   -9.3406    1.0000 </r>
       <r>   -1.8336    1.0000 </r>
       <r>   -1.8336    1.0000 </r>
       <r>   -0.6749    1.0000 </r>
       <r>   -0.6749    1.0000 </r>
       <r>   -0.4020    1.0000 </r>
       <r>   -0.4020    1.0000 </r>
       <r>    0.6554    1.0000 </r>
       <r>    0.6554    1.0000 </r>
       <r>    1.3420    1.0000 </r>
       <r>    1.3420    1.0000 </r>
       <r>    1.8012    1.0000 </r>
       <r>    1.8012    1.0000 </r>
       <r>    2.3998    1.0000 </r>
       <r>    2.3998    1.0000 </r>
       <r>    5.2602    0.0000 </r>
       <r>    5.2608    0.0000 </r>
       <r>    5.4460    0.0000 </r>
       <r>    5.4511    0.0000 </r>
      </set>
      <set comment="kpoint 14">
       <r>   -9.4620    1.0000 </r>
       <r>   -9.4620    1.0000 </r>
       <r>   -9.0321    1.0000 </r>
       <r>   -9.0321    1.0000 </r>
       <r>   -2.2676    1.0000 </r>
       <r>   -2.2676    1.0000 </r>
       <r>   -1.2774    1.0000 </r>
       <r>   -1.2774    1.0000 </r>
       <r>   -0.8015    1.0000 </r>
       <r>   -0.8015    1.0000 </r>
       <r>    0.1581    1.0000 </r>
       <r>    0.1581    1.0000 </r>
       <r>    1.3943    1.0000 </r>
       <r>    1.3943    1.0000 </r>
       <r>    1.9327    1.0000 </r>
       <r>    1.9327    1.0000 </r>
       <r>    2.2011    1.0000 </r>
       <r>    2.2011    1.0000 </r>
       <r>    5.2641    0.0000 </r>
       <r>    5.2641    0.0000 </r>
       <r>    5.5376    0.0000 </r>
       <r>    5.5377    0.0000 </r>
      </set>
      <set comment="kpoint 15">
       <r>   -9.1337    1.0000 </r>
       <r>   -9.1337    1.0000 </r>
       <r>   -8.8888    1.0000 </r>
       <r>   -8.8888    1.0000 </r>
       <r>   -2.5998    1.0000 </r>
       <r>   -2.5998    1.0000 </r>
       <r>   -1.6409    1.0000 </r>
       <r>   -1.6409    1.0000 </r>
       <r>   -0.9289    1.0000 </r>
       <r>   -0.9289    1.0000 </r>
       <r>   -0.0225    1.0000 </r>
       <r>   -0.0225    1.0000 </r>
       <r>    1.2567    1.0000 </r>
       <r>    1.2567    1.0000 </r>
       <r>    2.1599    1.0000 </r>
       <r>    2.1599    1.0000 </r>
       <r>    2.4795    1.0000 </r>
       <r>    2.4795    1.0000 </r>
       <r>    5.2863    0.0000 </r>
       <r>    5.2863    0.0000 </r>
       <r>    5.8019    0.0000 </r>
       <r>    5.8021    0.0000 </r>
      </set>
      <set comment="kpoint 16">
       <r>  -10.3131    1.0000 </r>
       <r>  -10.3131    1.0000 </r>
       <r>   -9.4224    1.0000 </r>
       <r>   -9.4224    1.0000 </r>
       <r>   -1.8534    1.0000 </r>
       <r>   -1.8534    1.0000 </r>
       <r>   -0.5086    1.0000 </r>
       <r>   -0.5086    1.0000 </r>
       <r>    0.0133    1.0000 </r>
       <r>    0.0133    1.0000 </r>
       <r>    0.4765    1.0000 </r>
       <r>    0.4765    1.0000 </r>
       <r>    1.0944    1.0000 </r>
       <r>    1.0944    1.0000 </r>
       <r>    2.1823    1.0000 </r>
       <r>    2.1823    1.0000 </r>
       <r>    2.6019    1.0000 </r>
       <r>    2.6019    1.0000 </r>
       <r>    5.1823    0.0000 </r>
       <r>    5.1866    0.0000 </r>
       <r>    5.5436    0.0000 </r>
       <r>    5.6463    0.0000 </r>
      </set>
      <set comment="kpoint 17">
       <r>   -9.6795    1.0000 </r>
       <r>   -9.6795    1.0000 </r>
       <r>   -9.1238    1.0000 </r>
       <r>   -9.1238    1.0000 </r>
       <r>   -1.9128    1.0000 </r>
       <r>   -1.9128    1.0000 </r>
       <r>   -0.9367    1.0000 </r>
       <r>   -0.9367    1.0000 </r>
       <r>   -0.6711    1.0000 </r>
       <r>   -0.6711    1.0000 </r>
       <r>   -0.0260    1.0000 </r>
       <r>   -0.0260    1.0000 </r>
       <r>    1.1937    1.0000 </r>
       <r>    1.1937    1.0000 </r>
       <r>    1.8290    1.0000 </r>
       <r>    1.8290    1.0000 </r>
       <r>    2.3082    1.0000 </r>
       <r>    2.3082    1.0000 </r>
       <r>    5.1029    0.0000 </r>
       <r>    5.1031    0.0000 </r>
       <r>    5.5545    0.0000 </r>
       <r>    5.9715    0.0000 </r>
      </set>
      <set comment="kpoint 18">
       <r>   -9.1489    1.0000 </r>
       <r>   -9.1489    1.0000 </r>
       <r>   -8.8799    1.0000 </r>
       <r>   -8.8799    1.0000 </r>
       <r>   -2.3126    1.0000 </r>
       <r>   -2.3125    1.0000 </r>
       <r>   -1.6973    1.0000 </r>
       <r>   -1.6973    1.0000 </r>
       <r>   -0.8028    1.0000 </r>
       <r>   -0.8028    1.0000 </r>
       <r>   -0.0440    1.0000 </r>
       <r>   -0.0440    1.0000 </r>
       <r>    1.2081    1.0000 </r>
       <r>    1.2081    1.0000 </r>
       <r>    1.3481    1.0000 </r>
       <r>    1.3481    1.0000 </r>
       <r>    2.6345    1.0000 </r>
       <r>    2.6345    1.0000 </r>
       <r>    5.3032    0.0000 </r>
       <r>    5.3032    0.0000 </r>
       <r>    5.8122    0.0000 </r>
       <r>    5.8126    0.0000 </r>
      </set>
      <set comment="kpoint 19">
       <r>   -9.1639    1.0000 </r>
       <r>   -9.1639    1.0000 </r>
       <r>   -8.8709    1.0000 </r>
       <r>   -8.8709    1.0000 </r>
       <r>   -1.9525    1.0000 </r>
       <r>   -1.9525    1.0000 </r>
       <r>   -1.7473    1.0000 </r>
       <r>   -1.7473    1.0000 </r>
       <r>   -0.4791    1.0000 </r>
       <r>   -0.4791    1.0000 </r>
       <r>   -0.0903    1.0000 </r>
       <r>   -0.0903    1.0000 </r>
       <r>    0.2268    1.0000 </r>
       <r>    0.2268    1.0000 </r>
       <r>    1.4812    1.0000 </r>
       <r>    1.4812    1.0000 </r>
       <r>    2.6060    1.0000 </r>
       <r>    2.6060    1.0000 </r>
       <r>    5.2497    0.0000 </r>
       <r>    5.2499    0.0000 </r>
       <r>    5.9446    0.0000 </r>
       <r>    6.1609    0.0000 </r>
      </set>
      <set comment="kpoint 20">
       <r>   -8.9289    1.0000 </r>
       <r>   -8.9289    1.0000 </r>
       <r>   -8.7517    1.0000 </r>
       <r>   -8.7517    1.0000 </r>
       <r>   -2.1319    1.0000 </r>
       <r>   -2.1319    1.0000 </r>
       <r>   -1.7829    1.0000 </r>
       <r>   -1.7829    1.0000 </r>
       <r>   -0.7598    1.0000 </r>
       <r>   -0.7598    1.0000 </r>
       <r>   -0.0986    1.0000 </r>
       <r>   -0.0986    1.0000 </r>
       <r>    0.1379    1.0000 </r>
       <r>    0.1379    1.0000 </r>
       <r>    1.0948    1.0000 </r>
       <r>    1.0948    1.0000 </r>
       <r>    2.9731    1.0000 </r>
       <r>    2.9731    1.0000 </r>
       <r>    4.9284    0.0000 </r>
       <r>    4.9284    0.0000 </r>
       <r>    6.2285    0.0000 </r>
       <r>    6.2514    0.0000 </r>
      </set>
     </set>
    </set>
   </array>
  </eigenvalues>
  <separator name="orbital magnetization" >
   <v name="MAGDIPOLOUT">      0.00000000      0.00000000      0.00000000</v>
  </separator>
  <dos>
   <i name="efermi">      3.30347693 </i>
   <total>
    <array>
     <dimension dim="1">gridpoints</dimension>
     <dimension dim="2">spin</dimension>
     <field>energy</field>
     <field>total</field>
     <field>integrated</field>
     <set>
      <set comment="spin 1">
       <r>   -12.9295     0.0000     0.0000 </r>
       <r>   -12.8586     0.0000     0.0000 </r>
       <r>   -12.7878     0.0000     0.0000 </r>
       <r>   -12.7169     0.0000     0.0000 </r>
       <r>   -12.6461     0.0000     0.0000 </r>
       <r>   -12.5752     0.0000     0.0000 </r>
       <r>   -12.5044     0.0000     0.0000 </r>
       <r>   -12.4335     0.0000     0.0000 </r>
       <r>   -12.3627     0.0000     0.0000 </r>
       <r>   -12.2919     0.0000     0.0000 </r>
       <r>   -12.2210     0.0000     0.0000 </r>
       <r>   -12.1502     0.0000     0.0000 </r>
       <r>   -12.0793     0.0000     0.0000 </r>
       <r>   -12.0085     0.0000     0.0000 </r>
       <r>   -11.9376     0.0000     0.0000 </r>
       <r>   -11.8668     0.0000     0.0000 </r>
       <r>   -11.7959     0.0000     0.0000 </r>
       <r>   -11.7251     0.0000     0.0000 </r>
       <r>   -11.6542     0.0000     0.0000 </r>
       <r>   -11.5834     0.0000     0.0000 </r>
       <r>   -11.5125     0.0000     0.0000 </r>
       <r>   -11.4417     0.0000     0.0000 </r>
       <r>   -11.3708     0.0000     0.0000 </r>
       <r>   -11.3000     0.0000     0.0000 </r>
       <r>   -11.2291     0.0000     0.0000 </r>
       <r>   -11.1583     0.0000     0.0000 </r>
       <r>   -11.0874     0.0000     0.0000 </r>
       <r>   -11.0166     0.0000     0.0000 </r>
       <r>   -10.9457     0.0000     0.0000 </r>
       <r>   -10.8749     0.3690     0.0084 </r>
       <r>   -10.8041     0.9482     0.0551 </r>
       <r>   -10.7332     1.5275     0.1428 </r>
       <r>   -10.6624     0.9949     0.2299 </r>
       <r>   -10.5915     1.0606     0.3027 </r>
       <r>   -10.5207     1.1262     0.3802 </r>
       <r>   -10.4498     1.1919     0.4623 </r>
       <r>   -10.3790     1.2575     0.5491 </r>
       <r>   -10.3081     1.3191     0.6405 </r>
       <r>   -10.2373     1.3313     0.7344 </r>
       <r>   -10.1664     1.3431     0.8291 </r>
       <r>   -10.0956     1.3802     0.9252 </r>
       <r>   -10.0247     1.4351     1.0249 </r>
       <r>    -9.9539     1.4900     1.1286 </r>
       <r>    -9.8830     1.5449     1.2361 </r>
       <r>    -9.8122     1.5998     1.3475 </r>
       <r>    -9.7413     1.6547     1.4628 </r>
       <r>    -9.6705     3.3403     1.6155 </r>
       <r>    -9.5996     4.3916     1.9288 </r>
       <r>    -9.5288     4.5911     2.2375 </r>
       <r>    -9.4579     5.0875     2.5802 </r>
       <r>    -9.3871     5.5564     2.9593 </r>
       <r>    -9.3163     5.9784     3.3662 </r>
       <r>    -9.2454     6.5417     3.8098 </r>
       <r>    -9.1746     7.1052     4.2932 </r>
       <r>    -9.1037     8.4807     5.0797 </r>
       <r>    -9.0329     8.3383     5.6752 </r>
       <r>    -8.9620     8.6770     6.2774 </r>
       <r>    -8.8912     8.3533     6.9182 </r>
       <r>    -8.8203     6.2721     7.6144 </r>
       <r>    -8.7495     0.0000     8.0000 </r>
       <r>    -8.6786     0.0000     8.0000 </r>
       <r>    -8.6078     0.0000     8.0000 </r>
       <r>    -8.5369     0.0000     8.0000 </r>
       <r>    -8.4661     0.0000     8.0000 </r>
       <r>    -8.3952     0.0000     8.0000 </r>
       <r>    -8.3244     0.0000     8.0000 </r>
       <r>    -8.2535     0.0000     8.0000 </r>
       <r>    -8.1827     0.0000     8.0000 </r>
       <r>    -8.1118     0.0000     8.0000 </r>
       <r>    -8.0410     0.0000     8.0000 </r>
       <r>    -7.9701     0.0000     8.0000 </r>
       <r>    -7.8993     0.0000     8.0000 </r>
       <r>    -7.8285     0.0000     8.0000 </r>
       <r>    -7.7576     0.0000     8.0000 </r>
       <r>    -7.6868     0.0000     8.0000 </r>
       <r>    -7.6159     0.0000     8.0000 </r>
       <r>    -7.5451     0.0000     8.0000 </r>
       <r>    -7.4742     0.0000     8.0000 </r>
       <r>    -7.4034     0.0000     8.0000 </r>
       <r>    -7.3325     0.0000     8.0000 </r>
       <r>    -7.2617     0.0000     8.0000 </r>
       <r>    -7.1908     0.0000     8.0000 </r>
       <r>    -7.1200     0.0000     8.0000 </r>
       <r>    -7.0491     0.0000     8.0000 </r>
       <r>    -6.9783     0.0000     8.0000 </r>
       <r>    -6.9074     0.0000     8.0000 </r>
       <r>    -6.8366     0.0000     8.0000 </r>
       <r>    -6.7657     0.0000     8.0000 </r>
       <r>    -6.6949     0.0000     8.0000 </r>
       <r>    -6.6240     0.0000     8.0000 </r>
       <r>    -6.5532     0.0000     8.0000 </r>
       <r>    -6.4823     0.0000     8.0000 </r>
       <r>    -6.4115     0.0000     8.0000 </r>
       <r>    -6.3407     0.0000     8.0000 </r>
       <r>    -6.2698     0.0000     8.0000 </r>
       <r>    -6.1990     0.0000     8.0000 </r>
       <r>    -6.1281     0.0000     8.0000 </r>
       <r>    -6.0573     0.0000     8.0000 </r>
       <r>    -5.9864     0.0000     8.0000 </r>
       <r>    -5.9156     0.0000     8.0000 </r>
       <r>    -5.8447     0.0000     8.0000 </r>
       <r>    -5.7739     0.0000     8.0000 </r>
       <r>    -5.7030     0.0000     8.0000 </r>
       <r>    -5.6322     0.0000     8.0000 </r>
       <r>    -5.5613     0.0000     8.0000 </r>
       <r>    -5.4905     0.0000     8.0000 </r>
       <r>    -5.4196     0.0000     8.0000 </r>
       <r>    -5.3488     0.0000     8.0000 </r>
       <r>    -5.2779     0.0000     8.0000 </r>
       <r>    -5.2071     0.0000     8.0000 </r>
       <r>    -5.1362     0.0000     8.0000 </r>
       <r>    -5.0654     0.0000     8.0000 </r>
       <r>    -4.9945     0.0000     8.0000 </r>
       <r>    -4.9237     0.0000     8.0000 </r>
       <r>    -4.8529     0.0000     8.0000 </r>
       <r>    -4.7820     0.0000     8.0000 </r>
       <r>    -4.7112     0.0000     8.0000 </r>
       <r>    -4.6403     0.0000     8.0000 </r>
       <r>    -4.5695     0.0000     8.0000 </r>
       <r>    -4.4986     0.0000     8.0000 </r>
       <r>    -4.4278     0.0000     8.0000 </r>
       <r>    -4.3569     0.0000     8.0000 </r>
       <r>    -4.2861     0.0000     8.0000 </r>
       <r>    -4.2152     0.0000     8.0000 </r>
       <r>    -4.1444     0.0000     8.0000 </r>
       <r>    -4.0735     0.0000     8.0000 </r>
       <r>    -4.0027     0.0000     8.0000 </r>
       <r>    -3.9318     0.0000     8.0000 </r>
       <r>    -3.8610     0.0000     8.0000 </r>
       <r>    -3.7901     0.0000     8.0000 </r>
       <r>    -3.7193     0.0000     8.0000 </r>
       <r>    -3.6484     0.0000     8.0000 </r>
       <r>    -3.5776     0.0000     8.0000 </r>
       <r>    -3.5067     0.0000     8.0000 </r>
       <r>    -3.4359     0.0000     8.0000 </r>
       <r>    -3.3651     0.0000     8.0000 </r>
       <r>    -3.2942     0.0000     8.0000 </r>
       <r>    -3.2234     0.0000     8.0000 </r>
       <r>    -3.1525     0.0000     8.0000 </r>
       <r>    -3.0817     0.0000     8.0000 </r>
       <r>    -3.0108     0.0000     8.0000 </r>
       <r>    -2.9400     0.0000     8.0000 </r>
       <r>    -2.8691     0.0000     8.0000 </r>
       <r>    -2.7983     0.0000     8.0000 </r>
       <r>    -2.7274     0.0000     8.0000 </r>
       <r>    -2.6566     0.0000     8.0000 </r>
       <r>    -2.5857     0.1743     8.0016 </r>
       <r>    -2.5149     1.0544     8.0451 </r>
       <r>    -2.4440     2.0566     8.1541 </r>
       <r>    -2.3732     3.2536     8.3411 </r>
       <r>    -2.3023     5.0820     8.6247 </r>
       <r>    -2.2315     5.5336     9.0020 </r>
       <r>    -2.1606     5.9835     9.4104 </r>
       <r>    -2.0898     7.5327     9.9785 </r>
       <r>    -2.0189     6.4184    10.4727 </r>
       <r>    -1.9481     7.3470    10.9013 </r>
       <r>    -1.8773     8.2290    11.6257 </r>
       <r>    -1.8064     2.0826    11.9707 </r>
       <r>    -1.7356     9.3356    12.5541 </r>
       <r>    -1.6647     4.7824    13.0381 </r>
       <r>    -1.5939     2.6826    13.2598 </r>
       <r>    -1.5230     2.4552    13.4418 </r>
       <r>    -1.4522     2.2281    13.6077 </r>
       <r>    -1.3813     2.0011    13.7576 </r>
       <r>    -1.3105     1.7744    13.8913 </r>
       <r>    -1.2396     1.6703    14.0115 </r>
       <r>    -1.1688     1.6778    14.1301 </r>
       <r>    -1.0979     1.6854    14.2493 </r>
       <r>    -1.0271     1.6930    14.3689 </r>
       <r>    -0.9562     1.7606    14.4894 </r>
       <r>    -0.8854     5.1816    14.7146 </r>
       <r>    -0.8145    10.6796    15.2648 </r>
       <r>    -0.7437    12.0971    16.1502 </r>
       <r>    -0.6728     9.8423    16.8618 </r>
       <r>    -0.6020     8.2140    17.5280 </r>
       <r>    -0.5311     5.0099    17.9966 </r>
       <r>    -0.4603     2.6402    18.2496 </r>
       <r>    -0.3895     2.3742    18.4267 </r>
       <r>    -0.3186     2.2024    18.5885 </r>
       <r>    -0.2478     2.0424    18.7389 </r>
       <r>    -0.1769     1.8827    18.8779 </r>
       <r>    -0.1061    13.7244    19.0938 </r>
       <r>    -0.0352    21.3306    20.4758 </r>
       <r>     0.0356     7.6119    21.2940 </r>
       <r>     0.1065     5.2214    21.7511 </r>
       <r>     0.1773     5.9418    22.2337 </r>
       <r>     0.2482     3.7871    22.5593 </r>
       <r>     0.3190     3.6011    22.8211 </r>
       <r>     0.3899     3.4150    23.0696 </r>
       <r>     0.4607     3.3641    23.3052 </r>
       <r>     0.5316     5.0506    23.6038 </r>
       <r>     0.6024     5.0338    23.9691 </r>
       <r>     0.6733     4.2591    24.3168 </r>
       <r>     0.7441     2.7364    24.5646 </r>
       <r>     0.8150     1.7937    24.7019 </r>
       <r>     0.8858     1.7504    24.8274 </r>
       <r>     0.9567     1.7138    24.9501 </r>
       <r>     1.0275     1.6838    25.0704 </r>
       <r>     1.0983     4.1157    25.2328 </r>
       <r>     1.1692    10.4379    25.7324 </r>
       <r>     1.2400    18.1542    26.7805 </r>
       <r>     1.3109    13.8217    27.9488 </r>
       <r>     1.3817     5.1848    28.6132 </r>
       <r>     1.4526     3.1624    28.8864 </r>
       <r>     1.5234     2.9559    29.1006 </r>
       <r>     1.5943     2.8766    29.3072 </r>
       <r>     1.6651     3.0044    29.5122 </r>
       <r>     1.7360     3.5688    29.7392 </r>
       <r>     1.8068     6.3251    30.0710 </r>
       <r>     1.8777     8.5628    30.6210 </r>
       <r>     1.9485     4.8954    31.1145 </r>
       <r>     2.0194     4.4556    31.4505 </r>
       <r>     2.0902     3.2024    31.7267 </r>
       <r>     2.1611     1.6721    31.8961 </r>
       <r>     2.2319     2.4539    32.0172 </r>
       <r>     2.3028     5.9058    32.3030 </r>
       <r>     2.3736     7.8758    32.8808 </r>
       <r>     2.4444     7.2233    33.4124 </r>
       <r>     2.5153     6.6855    33.9062 </r>
       <r>     2.5861     6.1569    34.3596 </r>
       <r>     2.6570     4.3349    34.7492 </r>
       <r>     2.7278     3.8111    35.0378 </r>
       <r>     2.7987     3.2867    35.2892 </r>
       <r>     2.8695     2.9857    35.5067 </r>
       <r>     2.9404     2.4590    35.7042 </r>
       <r>     3.0112     0.9705    35.8791 </r>
       <r>     3.0821     0.8467    35.9446 </r>
       <r>     3.1529     0.3296    35.9840 </r>
       <r>     3.2238     0.0869    35.9978 </r>
       <r>     3.2946     0.0002    36.0000 </r>
       <r>     3.3655     0.0000    36.0000 </r>
       <r>     3.4363     0.0000    36.0000 </r>
       <r>     3.5072     0.0000    36.0000 </r>
       <r>     3.5780     0.0000    36.0000 </r>
       <r>     3.6489     0.0000    36.0000 </r>
       <r>     3.7197     0.0000    36.0000 </r>
       <r>     3.7906     0.0000    36.0000 </r>
       <r>     3.8614     0.0000    36.0000 </r>
       <r>     3.9322     0.0000    36.0000 </r>
       <r>     4.0031     0.0000    36.0000 </r>
       <r>     4.0739     0.0000    36.0000 </r>
       <r>     4.1448     0.0000    36.0000 </r>
       <r>     4.2156     0.0000    36.0000 </r>
       <r>     4.2865     0.0000    36.0000 </r>
       <r>     4.3573     0.0000    36.0000 </r>
       <r>     4.4282     0.0000    36.0000 </r>
       <r>     4.4990     0.0000    36.0000 </r>
       <r>     4.5699     0.0000    36.0000 </r>
       <r>     4.6407     0.0000    36.0000 </r>
       <r>     4.7116     0.0000    36.0000 </r>
       <r>     4.7824     0.0000    36.0000 </r>
       <r>     4.8533     0.0000    36.0000 </r>
       <r>     4.9241     6.8768    36.0021 </r>
       <r>     4.9950     1.5346    36.1535 </r>
       <r>     5.0658     4.9139    36.3740 </r>
       <r>     5.1367     8.5224    36.8498 </r>
       <r>     5.2075    12.7389    37.6025 </r>
       <r>     5.2784    26.6561    38.6746 </r>
       <r>     5.3492     2.3232    39.4507 </r>
       <r>     5.4200     1.6860    39.5897 </r>
       <r>     5.4909     7.4578    39.8607 </r>
       <r>     5.5617     7.3680    40.5798 </r>
       <r>     5.6326     7.9926    41.1299 </r>
       <r>     5.7034     7.8861    41.6866 </r>
       <r>     5.7743     7.5463    42.2271 </r>
       <r>     5.8451     6.4171    42.8530 </r>
       <r>     5.9160     3.6458    43.1622 </r>
       <r>     5.9868     2.9146    43.3923 </r>
       <r>     6.0577     2.3305    43.5781 </r>
       <r>     6.1285     1.8055    43.7231 </r>
       <r>     6.1994     1.7107    43.8551 </r>
       <r>     6.2702     1.2637    43.9545 </r>
       <r>     6.3411     0.0000    44.0000 </r>
       <r>     6.4119     0.0000    44.0000 </r>
       <r>     6.4828     0.0000    44.0000 </r>
       <r>     6.5536     0.0000    44.0000 </r>
       <r>     6.6245     0.0000    44.0000 </r>
       <r>     6.6953     0.0000    44.0000 </r>
       <r>     6.7662     0.0000    44.0000 </r>
       <r>     6.8370     0.0000    44.0000 </r>
       <r>     6.9078     0.0000    44.0000 </r>
       <r>     6.9787     0.0000    44.0000 </r>
       <r>     7.0495     0.0000    44.0000 </r>
       <r>     7.1204     0.0000    44.0000 </r>
       <r>     7.1912     0.0000    44.0000 </r>
       <r>     7.2621     0.0000    44.0000 </r>
       <r>     7.3329     0.0000    44.0000 </r>
       <r>     7.4038     0.0000    44.0000 </r>
       <r>     7.4746     0.0000    44.0000 </r>
       <r>     7.5455     0.0000    44.0000 </r>
       <r>     7.6163     0.0000    44.0000 </r>
       <r>     7.6872     0.0000    44.0000 </r>
       <r>     7.7580     0.0000    44.0000 </r>
       <r>     7.8289     0.0000    44.0000 </r>
       <r>     7.8997     0.0000    44.0000 </r>
       <r>     7.9706     0.0000    44.0000 </r>
       <r>     8.0414     0.0000    44.0000 </r>
       <r>     8.1123     0.0000    44.0000 </r>
       <r>     8.1831     0.0000    44.0000 </r>
       <r>     8.2540     0.0000    44.0000 </r>
       <r>     8.3248     0.0000    44.0000 </r>
      </set>
     </set>
    </array>
   </total>
  </dos>
 </calculation>
 <structure name="finalpos" >
  <crystal>
   <varray name="basis" >
    <v>       3.19031573       0.00000000       0.00000000 </v>
    <v>      -1.59515786       2.76289447       0.00000000 </v>
    <v>       0.00000000       0.00000000      14.87900430 </v>
   </varray>
   <i name="volume">    131.15106795 </i>
   <varray name="rec_basis" >
    <v>       0.31344860       0.18096963       0.00000000 </v>
    <v>       0.00000000       0.36193927       0.00000000 </v>
    <v>       0.00000000       0.00000000       0.06720880 </v>
   </varray>
  </crystal>
  <varray name="positions" >
   <v>       0.33333300       0.66666700       0.25000000 </v>
   <v>       0.66666700       0.33333300       0.75000000 </v>
   <v>       0.33333300       0.66666700       0.85517400 </v>
   <v>       0.66666700       0.33333300       0.14482600 </v>
   <v>       0.66666600       0.33333300       0.35517400 </v>
   <v>       0.33333400       0.66666700       0.64482600 </v>
  </varray>
 </structure>
</modeling>
