unknown system                          
   1.00000000000000     
     3.190316    0.000000    0.000000
    -1.595158    2.762894    0.000000
     0.000000    0.000000   26.879004
   Mo   S 
     1     2
Direct
  0.333333  0.666667  0.138389
  0.666667  0.333333  0.080169
  0.666666  0.333333  0.196608
 
   24   24  216
 0.36940     0.37484     0.38954     0.41503     0.45387     0.50544     0.56544     0.62866     0.69057     0.74718    
 0.79469     0.82745     0.83748     0.82037     0.78256     0.73724     0.69056     0.63751     0.57425     0.50873    
 0.45386     0.41497     0.38928     0.37408     0.37457     0.37509     0.38857     0.41561     0.45801     0.51639    
 0.58897     0.67165     0.75719     0.83618     0.90198     0.95247     0.98375     0.98596     0.95217     0.88977    
 0.81620     0.74287     0.66947     0.59406     0.52186     0.46125     0.41661     0.38803     0.38966     0.38093    
 0.38921     0.41606     0.46133     0.52348     0.60225     0.69728     0.80290     0.90706     0.99742      1.0676    
  1.1161      1.1394      1.1295      1.0801     0.99617     0.89377     0.79037     0.69434     0.60600     0.52638    
 0.46117     0.41558     0.41653     0.39555     0.39269     0.41418     0.46136     0.52770     0.61032     0.71251    
 0.83166     0.95506      1.0692      1.1649      1.2335      1.2691      1.2733      1.2477      1.1855      1.0828    
 0.95477     0.82731     0.71366     0.61188     0.52330     0.45714     0.45386     0.42100     0.40365     0.41097    
 0.45386     0.52371     0.60917     0.71532     0.84615     0.98607      1.1170      1.2351      1.3334      1.3915    
  1.4005      1.3773      1.3334      1.2546      1.1308     0.98471     0.84615     0.72086     0.60562     0.51259    
 0.49798     0.45310     0.42469     0.41244     0.43993     0.50816     0.59461     0.69756     0.83370     0.99263    
  1.1413      1.2713      1.3938      1.4916      1.5282      1.5048      1.4559      1.3895      1.2822      1.1351    
 0.98273     0.84266     0.70661     0.58282     0.54997     0.48560     0.45153     0.42418     0.42731     0.48402    
 0.57088     0.66575     0.79056     0.95910      1.1325      1.2748      1.4024      1.5293      1.6158      1.6242    
  1.5777      1.5115      1.4145      1.2699      1.1065     0.95785     0.81503     0.66844     0.61498     0.51906    
 0.47598     0.44394     0.42363     0.45634     0.54027     0.63349     0.73748     0.89101      1.0813      1.2481    
  1.3773      1.5043      1.6235      1.6817      1.6656      1.6129      1.5325      1.3983      1.2233      1.0587    
 0.91478     0.76285     0.69056     0.56025     0.49494     0.46219     0.42974     0.43111     0.49823     0.59609    
 0.69057     0.81393     0.99435      1.1853      1.3334      1.4548      1.5761      1.6649      1.6837      1.6542    
  1.6020      1.5006      1.3334      1.1500     0.99579     0.84962     0.76115     0.61101     0.51402     0.47199    
 0.43923     0.41612     0.44954     0.53963     0.63808     0.74081     0.89027      1.0815      1.2553      1.3897    
  1.5109      1.6130      1.6549      1.6383      1.6018      1.5394      1.4100      1.2283      1.0578     0.91319    
 0.81006     0.66149     0.53977     0.47642     0.44412     0.41374     0.41326     0.47324     0.56734     0.66403    
 0.78419     0.95034      1.1297      1.2822      1.4143      1.5333      1.6036      1.6025      1.5640      1.5159    
  1.4280      1.2764      1.1023     0.95114     0.83340     0.69736     0.56966     0.48385     0.44219     0.41467    
 0.39879     0.42380     0.49355     0.58138     0.68301     0.81829     0.97938      1.1321      1.2676      1.3976    
  1.5017      1.5398      1.5147      1.4648      1.3958      1.2806      1.1248     0.97038     0.83748     0.71163    
 0.59243     0.49669     0.43910     0.40881     0.39229     0.39850     0.43909     0.50604     0.59071     0.70102    
 0.83749     0.97699      1.1022      1.2208      1.3334      1.4104      1.4267      1.3939      1.3334      1.2426    
  1.1157     0.97261     0.82632     0.70733     0.59908     0.50791     0.44114     0.39983     0.37991     0.38046    
 0.40337     0.44722     0.51054     0.59777     0.71054     0.83550     0.95299      1.0564      1.1502      1.2297    
  1.2774      1.2809      1.2428      1.1706      1.0703     0.95085     0.79795     0.69054     0.59065     0.50919    
 0.44630     0.39836     0.36853     0.36177     0.37515     0.40248     0.44467     0.50789     0.59398     0.69757    
 0.80843     0.91266     0.99762      1.0603      1.1049      1.1290      1.1203      1.0723     0.99453     0.90095    
 0.75124     0.66383     0.57414     0.49995     0.44655     0.40383     0.36929     0.35282     0.35673     0.37205    
 0.39690     0.43900     0.49945     0.57240     0.65846     0.75763     0.85190     0.91759     0.95352     0.97479    
 0.98136     0.95755     0.90149     0.82958     0.69057     0.62664     0.55366     0.48630     0.43912     0.40606    
 0.37689     0.35714     0.35411     0.36087     0.37188     0.39630     0.43909     0.48871     0.53984     0.60597    
 0.69057     0.76820     0.81484     0.83625     0.84615     0.83830     0.80252     0.74850     0.62378     0.58014    
 0.52841     0.47324     0.43044     0.40327     0.38178     0.36495     0.36045     0.36480     0.36817     0.37670    
 0.40426     0.44476     0.47964     0.51083     0.55729     0.61889     0.67215     0.70342     0.71920     0.72200    
 0.70369     0.66628     0.55872     0.53000     0.49818     0.46074     0.42702     0.40472     0.38892     0.37538    
 0.37017     0.37487     0.37852     0.37726     0.38557     0.41334     0.44748     0.47194     0.49152     0.51927    
 0.55332     0.58234     0.60245     0.61341     0.60935     0.58794     0.50125     0.48376     0.46683     0.44730    
 0.42798     0.41509     0.40740     0.39954     0.39366     0.39558     0.40103     0.39985     0.39396     0.39744    
 0.41642     0.44119     0.46083     0.47467     0.48669     0.49857     0.51075     0.52194     0.52615     0.51804    
 0.45387     0.44585     0.43953     0.43415     0.42972     0.42937     0.43374     0.43813     0.43912     0.43968    
 0.44303     0.44508     0.43910     0.42634     0.41662     0.41813     0.42974     0.44334     0.45159     0.45349    
 0.45386     0.45698     0.46095     0.46033     0.41650     0.41636     0.41856     0.42420     0.43280     0.44467    
 0.46079     0.47960     0.49597     0.50557     0.50924     0.51051     0.50881     0.49845     0.47647     0.44955    
 0.42975     0.42299     0.42423     0.42466     0.42121     0.41731     0.41610     0.41658     0.38939     0.39445    
 0.40354     0.41851     0.43938     0.46416     0.49160     0.52201     0.55351     0.57971     0.59406     0.59643    
 0.59228     0.58421     0.56742     0.53641     0.49480     0.45497     0.42739     0.41243     0.40350     0.39578    
 0.38973     0.38755     0.37379     0.38065     0.39399     0.41584     0.44761     0.48690     0.52953     0.57327    
 0.61739     0.65872     0.69007     0.70421     0.69993     0.68327     0.66102     0.63294     0.59312     0.54053    
 0.48513     0.44037     0.41118     0.39293     0.38046     0.37359     0.49000     0.49933     0.52564     0.57060    
 0.63670     0.72251     0.82193     0.92708      1.0301      1.1235      1.2001      1.2516      1.2680      1.2441    
  1.1873      1.1130      1.0301     0.93645     0.83128     0.72601     0.63670     0.57055     0.52537     0.49852    
 0.49904     0.49957     0.52382     0.57209     0.64562     0.74391     0.86336     0.99719      1.1345      1.2618    
  1.3681      1.4480      1.4951      1.4974      1.4478      1.3552      1.2406      1.1195     0.99495     0.86875    
 0.74963     0.64899     0.57316     0.52329     0.52575     0.51010     0.52529     0.57257     0.65075     0.75670    
 0.88820      1.0423      1.2097      1.3740      1.5178      1.6304      1.7063      1.7394      1.7204      1.6436    
  1.5166      1.3600      1.1965      1.0391     0.89208     0.75973     0.65058     0.57206     0.57217     0.53468    
 0.53170     0.56972     0.64909     0.76109     0.90039      1.0677      1.2573      1.4518      1.6326      1.7850    
  1.8951      1.9527      1.9571      1.9101      1.8068      1.6469      1.4515      1.2526      1.0689     0.90203    
 0.75649     0.64465     0.63670     0.57598     0.54874     0.56540     0.63669     0.75156     0.89538      1.0706    
  1.2784      1.4987      1.7081      1.8972      2.0529      2.1480      2.1693      2.1330      2.0529      1.9177    
  1.7226      1.4972      1.2784      1.0765     0.89169     0.73987     0.71468     0.62974     0.58014     0.56721    
 0.61586     0.72542     0.86930      1.0425      1.2593      1.5056      1.7423      1.9555      2.1507      2.3028    
  2.3676      2.3429      2.2651      2.1461      1.9670      1.7358      1.4951      1.2688      1.0521     0.85690    
 0.80565     0.68888     0.62189     0.58235     0.59633     0.68725     0.82778     0.99105      1.1967      1.4560    
  1.7243      1.9591      2.1715      2.3688      2.5018      2.5252      2.4616      2.3500      2.1844      1.9541    
  1.6970      1.4547      1.2225     0.99385     0.91265     0.75262     0.66511     0.60928     0.58782     0.64435    
 0.77506     0.93229      1.1138      1.3571      1.6453      1.9109      2.1332      2.3424      2.5244      2.6161    
  2.5991      2.5133      2.3722      2.1554      1.8847      1.6215      1.3822      1.1405      1.0301     0.82592    
 0.70540     0.63797     0.59239     0.60512     0.70881     0.86372      1.0301      1.2383      1.5147      1.8066    
  2.0529      2.2639      2.4599      2.5984      2.6339      2.5871      2.4872      2.3123      2.0529      1.7693    
  1.5162      1.2759      1.1382     0.90798     0.74679     0.66033     0.60373     0.57934     0.63662     0.77375    
 0.93645      1.1167      1.3558      1.6451      1.9182      2.1462      2.3493      2.5134      2.5878      2.5702    
  2.5016      2.3795      2.1675      1.8897      1.6200      1.3799      1.2163     0.98560     0.79398     0.67823    
 0.61304     0.57031     0.58051     0.67492     0.82309     0.98825      1.1890      1.4458      1.7206      1.9665    
  2.1839      2.3730      2.4889      2.5023      2.4471      2.3547      2.1984      1.9604      1.6917      1.4467    
  1.2579      1.0412     0.84195     0.69866     0.61702     0.56826     0.55152     0.59767     0.70902     0.85441    
  1.0261      1.2419      1.4904      1.7317      1.9511      2.1545      2.3135      2.3800      2.3534      2.2745    
  2.1525      1.9649      1.7240      1.4809      1.2680      1.0656     0.87681     0.72214     0.62004     0.56183    
 0.53534     0.55091     0.62004     0.73208     0.87504      1.0544      1.2680      1.4879      1.6916      1.8817    
  2.0529      2.1683      2.1972      2.1508      2.0529      1.9048      1.7059      1.4833      1.2504      1.0611    
 0.88763     0.73944     0.62689     0.55347     0.51684     0.51732     0.55705     0.63328     0.74225     0.88621    
  1.0645      1.2601      1.4486      1.6186      1.7695      1.8915      1.9620      1.9657      1.9052      1.7911    
  1.6332      1.4463      1.2035      1.0340     0.87498     0.74080     0.63403     0.55284     0.50216     0.48838    
 0.50901     0.55713     0.63235     0.73941     0.87841      1.0414      1.2146      1.3794      1.5181      1.6231    
  1.6953      1.7294      1.7115      1.6358      1.5149      1.3670      1.1277     0.98802     0.84674     0.72562    
 0.63253     0.55851     0.50210     0.47448     0.47857     0.50502     0.55131     0.62462     0.72500     0.84484    
 0.98244      1.1345      1.2783      1.3851      1.4502      1.4868      1.4937      1.4543      1.3682      1.2548    
  1.0301     0.92438     0.80864     0.70136     0.62005     0.55987     0.51083     0.47900     0.47209     0.48290    
 0.50565     0.54974     0.62004     0.70378     0.79405     0.90266      1.0301      1.1461      1.2223      1.2621    
  1.2784      1.2642      1.2093      1.1255     0.92202     0.84687     0.76193     0.67495     0.60470     0.55597    
 0.51876     0.49175     0.48247     0.48697     0.49506     0.51349     0.55711     0.61973     0.68160     0.74343    
 0.82283     0.91680     0.99773      1.0487      1.0748      1.0777      1.0489     0.99161     0.81494     0.76420    
 0.70873     0.64842     0.59505     0.55783     0.53185     0.51208     0.50385     0.50791     0.51252     0.51400    
 0.52836     0.56690     0.61654     0.66026     0.70183     0.75289     0.80913     0.85635     0.88839     0.90363    
 0.89557     0.86227     0.71813     0.68699     0.65543     0.62218     0.59183     0.57172     0.56059     0.55205    
 0.54696     0.54993     0.55561     0.55339     0.54618     0.55012     0.57307     0.60574     0.63655     0.66376    
 0.69001     0.71524     0.73794     0.75508     0.75947     0.74558     0.63670     0.62210     0.60924     0.59893    
 0.59238     0.59329     0.60203     0.61269     0.62005     0.62541     0.63066     0.63104     0.62004     0.60033    
 0.58401     0.58139     0.59239     0.60868     0.62197     0.63011     0.63669     0.64454     0.65036     0.64802    
 0.57215     0.57107     0.57368     0.58240     0.59755     0.61949     0.64849     0.68155     0.71143     0.73151    
 0.74087     0.74221     0.73495     0.71412     0.67830     0.63661     0.60370     0.58718     0.58243     0.58008    
 0.57618     0.57304     0.57264     0.57311     0.52548     0.53355     0.54863     0.57361     0.60907     0.65266    
 0.70191     0.75525     0.80848     0.85255     0.87851     0.88479     0.87665     0.85733     0.82318     0.77043    
 0.70524     0.64294     0.59641     0.56719     0.54858     0.53495     0.52584     0.52273     0.49821     0.50985    
 0.53305     0.57050     0.62390     0.69025     0.76370     0.83969     0.91474     0.98270      1.0335      1.0578    
  1.0533      1.0263     0.98510     0.93112     0.86062     0.77530     0.68839     0.61629     0.56562     0.53194    
 0.50960     0.49797     0.64990     0.66592     0.71180     0.78838     0.89682      1.0337      1.1901      1.3549    
  1.5162      1.6619      1.7802      1.8586      1.8842      1.8507      1.7665      1.6507      1.5162      1.3649    
  1.2001      1.0374     0.89684     0.78837     0.71153     0.66503     0.66560     0.66615     0.70781     0.78974    
 0.91115      1.0690      1.2566      1.4641      1.6765      1.8748      2.0422      2.1673      2.2387      2.2412    
  2.1670      2.0285      1.8524      1.6606      1.4619      1.2624      1.0750     0.91470     0.79089     0.70729    
 0.71192     0.68548     0.71144     0.79025     0.91833      1.0893      1.2977      1.5374      1.7957      2.0508    
  2.2783      2.4592      2.5804      2.6299      2.5954      2.4732      2.2769      2.0360      1.7818      1.5341    
  1.3017      1.0925     0.91815     0.78971     0.79006     0.72770     0.72454     0.78748     0.91479      1.0939    
  1.3156      1.5778      1.8716      2.1754      2.4633      2.7110      2.8934      2.9902      2.9949      2.9093    
  2.7341      2.4785      2.1750      1.8666      1.5790      1.3173      1.0890     0.91009     0.89684     0.79519    
 0.75347     0.78399     0.89683      1.0770      1.3051      1.5807      1.9027      2.2475      2.5851      2.8967    
  3.1558      3.3202      3.3654      3.3044      3.1558      2.9184      2.6004      2.2459      1.9028      1.5870    
  1.3013      1.0647      1.0254     0.88272     0.80252     0.78884     0.86805      1.0368      1.2629      1.5375    
  1.8737      2.2547      2.6359      2.9946      3.3235      3.5795      3.7003      3.6741      3.5395      3.3186    
  3.0068      2.6290      2.2436      1.8838      1.5478      1.2498      1.1729     0.98148     0.86743     0.81070    
 0.84035     0.97978      1.1964      1.4578      1.7820      2.1798      2.6021      2.9984      3.3682      3.7017    
  3.9274      3.9824      3.8848      3.6818      3.3818      2.9930      2.5732      2.1784      1.8093      1.4607    
  1.3397      1.0886     0.93793     0.84838     0.82558     0.91586      1.1124      1.3606      1.6547      2.0330    
  2.4767      2.9111      3.3049      3.6736      3.9816      4.1421      4.1243      3.9698      3.7053      3.3284    
  2.8834      2.4516      2.0595      1.6829      1.5162      1.2066      1.0076     0.89081     0.82687     0.85596    
  1.0111      1.2466      1.5162      1.8500      2.2750      2.7339      3.1558      3.5382      3.8830      4.1235    
  4.1945      4.1115      3.9120      3.5895      3.1558      2.6944      2.2766      1.8898      1.6775      1.3312    
  1.0783     0.92815     0.83751     0.81170     0.90306      1.1068      1.3612      1.6545      2.0291      2.4748    
  2.9179      3.3183      3.6809      3.9699      4.1123      4.0936      3.9574      3.7129      3.3409      2.8877    
  2.4482      2.0547      1.7973      1.4452      1.1524     0.96064     0.84747     0.78698     0.81305     0.95719    
  1.1832      1.4479      1.7683      2.1649      2.5956      3.0048      3.3808      3.7060      3.9138      3.9581    
  3.8694      3.6866      3.3962      2.9984      2.5650      2.1659      1.8652      1.5270      1.2222     0.99400    
 0.85239     0.77159     0.75384     0.83193      1.0051      1.2356      1.5110      1.8483      2.2338      2.6217    
  2.9885      3.3270      3.5908      3.7134      3.6854      3.5495      3.3251      3.0031      2.6135      2.2237    
  1.8842      1.5650      1.2714      1.0274     0.85627     0.75382     0.71152     0.74217     0.85627      1.0380    
  1.2695      1.5531      1.8842      2.2311      2.5648      2.8792      3.1558      3.3421      3.3954      3.3235    
  3.1558      2.9037      2.5800      2.2262      1.8573      1.5603      1.2870      1.0501     0.86384     0.73685    
 0.67171     0.67211     0.74047     0.87057      1.0531      1.2855      1.5638      1.8676      2.1680      2.4467    
  2.6946      2.8907      3.0014      3.0053      2.9051      2.7175      2.4623      2.1654      1.7836      1.5195    
  1.2695      1.0515     0.87142     0.73171     0.64279     0.61577     0.64988     0.73616     0.86968      1.0500    
  1.2730      1.5273      1.7956      2.0541      2.2785      2.4532      2.5715      2.6222      2.5886      2.4667    
  2.2752      2.0410      1.6662      1.4476      1.2274      1.0311     0.86972     0.73758     0.63791     0.58717    
 0.59145     0.64100     0.73010     0.86144      1.0303      1.2253      1.4419      1.6735      1.8923      2.0625    
  2.1737      2.2349      2.2420      2.1780      2.0447      1.8675      1.5162      1.3484      1.1679     0.99697    
 0.85626     0.74345     0.65180     0.59191     0.57536     0.59599     0.64642     0.73294     0.85627     0.99938    
  1.1524      1.3255      1.5162      1.6888      1.8091      1.8768      1.9027      1.8788      1.7953      1.6671    
  1.3497      1.2287      1.0943     0.95728     0.83943     0.74758     0.67367     0.61933     0.59554     0.60021    
 0.62275     0.66820     0.74890     0.85523     0.96417      1.0747      1.2033      1.3441      1.4647      1.5443    
  1.5852      1.5882      1.5444      1.4583      1.1828      1.1009      1.0110     0.91554     0.82845     0.76058    
 0.70789     0.66669     0.64452     0.64398     0.65352     0.66864     0.70424     0.77016     0.85111     0.92811    
  1.0039      1.0889      1.1765      1.2492      1.2979      1.3190      1.3053      1.2555      1.0291     0.97953    
 0.92762     0.87402     0.82488     0.78842     0.76345     0.74346     0.72998     0.72866     0.73457     0.73664    
 0.73725     0.75241     0.78984     0.83961     0.88933     0.93649     0.98264      1.0259      1.0626      1.0876    
  1.0922      1.0707     0.89682     0.87464     0.85402     0.83737     0.82687     0.82642     0.83574     0.84773    
 0.85626     0.86234     0.86796     0.86824     0.85627     0.83475     0.81669     0.81378     0.82687     0.84775    
 0.86752     0.88310     0.89683     0.91003     0.91794     0.91366     0.79003     0.79000     0.79571     0.81075    
 0.83595     0.87125     0.91564     0.96416      1.0075      1.0373      1.0516      1.0531      1.0410      1.0104    
 0.96074     0.90300     0.85448     0.82497     0.81079     0.80247     0.79540     0.79101     0.79035     0.79082    
 0.71163     0.72652     0.75338     0.79561     0.85385     0.92475      1.0039      1.0873      1.1677      1.2334    
  1.2731      1.2840      1.2712      1.2385      1.1833      1.1033      1.0074     0.91443     0.84042     0.78880    
 0.75330     0.72798     0.71200     0.70664     0.66471     0.68526     0.72598     0.78936     0.87650     0.98293    
  1.1004      1.2212      1.3384      1.4421      1.5189      1.5566      1.5518      1.5113      1.4446      1.3557    
  1.2433      1.1126     0.98093     0.86845     0.78423     0.72480     0.68494     0.66442     0.86821     0.89402    
 0.96835      1.0901      1.2579      1.4658      1.7022      1.9526      2.2000      2.4254      2.6090      2.7303    
  2.7708      2.7219      2.5944      2.4134      2.2000      1.9633      1.7129      1.4698      1.2580      1.0901    
 0.96806     0.89307     0.89369     0.89427     0.96036      1.0892      1.2771      1.5179      1.8023      2.1172    
  2.4427      2.7518      3.0170      3.2158      3.3270      3.3297      3.2154      3.0024      2.7280      2.4259    
  2.1149      1.8084      1.5243      1.2809      1.0904     0.95980     0.96849     0.92734     0.96797      1.0897    
  1.2861      1.5473      1.8651      2.2314      2.6291      3.0281      3.3915      3.6852      3.8816      3.9578    
  3.8975      3.7001      3.3901      3.0124      2.6142      2.2278      1.8694      1.5506      1.2859      1.0892    
  1.0919     0.99628     0.99291      1.0891      1.2809      1.5521      1.8908      2.2936      2.7490      3.2279    
  3.6914      4.0970      4.3995      4.5614      4.5664      4.4165      4.1216      3.7076      3.2274      2.7436    
  2.2948      1.8926      1.5469      1.2759      1.2580      1.1021      1.0414      1.0901      1.2579      1.5264    
  1.8729      2.2966      2.7957      3.3408      3.8897      4.4045      4.8349      5.1136      5.1982      5.0968    
  4.8349      4.4276      3.9059      3.3390      2.7957      2.3034      1.8689      1.5133      1.4571      1.2374    
  1.1173      1.1028      1.2218      1.4692      1.8089      2.2314      2.7510      3.3483      3.9677      4.5684    
  5.1181      5.5440      5.7560      5.7280      5.5013      5.1129      4.5813      3.9604      3.3366      2.7619    
  2.2424      1.7950      1.6840      1.3912      1.2154      1.1366      1.1866      1.3894      1.7091      2.1106    
  2.6144      3.2324      3.9076      4.5723      5.2026      5.7580      6.1330      6.2391      6.0877      5.7368    
  5.2171      4.5667      3.8770      3.2311      2.6435      2.1136      1.9364      1.5587      1.3238      1.1906    
  1.1663      1.3002      1.5840      1.9588      2.4198      3.0092      3.7057      4.4198      5.0983      5.7281    
  6.2384      6.5088      6.4898      6.2260      5.7618      5.1233      4.3904      3.6789      3.0374      2.4496    
  2.2000      1.7396      1.4342      1.2530      1.1658      1.2159      1.4379      1.7821      2.2000      2.7255    
  3.3881      4.1215      4.8349      5.5000      6.0858      6.4890      6.6166      6.4763      6.1166      5.5545    
  4.8349      4.0794      3.3897      2.7678      2.4419      1.9257      1.5462      1.3122      1.1781      1.1507    
  1.2856      1.5765      1.9575      2.4174      3.0030      3.7019      4.4256      5.1115      5.7354      6.2259    
  6.4771      6.4572      6.2125      5.7693      5.1357      4.3936      3.6735      3.0303      2.6271      2.0937    
  1.6593      1.3667      1.1922      1.1096      1.1557      1.3631      1.6921      2.0966      2.5961      3.2131    
  3.8977      4.5770      5.2146      5.7620      6.1185      6.2134      6.0713      5.7414      5.2310      4.5701    
  3.8652      3.2141      2.7374      2.2157      1.7616      1.4203      1.2023      1.0818      1.0629      1.1806    
  1.4322      1.7759      2.1987      2.7192      3.3217      3.9491      4.5596      5.1208      5.5559      5.7705    
  5.7407      5.5120      5.1187      4.5751      3.9404      3.3110      2.7708      2.2748      1.8324      1.4695    
  1.2113      1.0548     0.99352      1.0423      1.2113      1.4809      1.8305      2.2621      2.7709      3.3190    
  3.8650      4.3844      4.8349      5.1380      5.2315      5.1181      4.8349      4.4105      3.8811      3.3136    
  2.7289      2.2698      1.8555      1.5011      1.2227      1.0315     0.93295     0.93325      1.0352      1.2299    
  1.5043      1.8538      2.2734      2.7400      3.2164      3.6719      4.0796      4.3982      4.5757      4.5796    
  4.4134      4.1040      3.6885      3.2137      2.6125      2.2077      1.8304      1.5026      1.2320      1.0234    
 0.89078     0.84883     0.89809      1.0280      1.2302      1.5010      1.8340      2.2161      2.6253      3.0297    
  3.3917      3.6807      3.8752      3.9531      3.8932      3.6950      3.3884      3.0157      2.4299      2.0963    
  1.7672      1.4735      1.2289      1.0295     0.88155     0.80552     0.80997     0.88476      1.0217      1.2202    
  1.4726      1.7649      2.0903      2.4378      2.7703      3.0405      3.2261      3.3274      3.3348      3.2306    
  3.0217      2.7442      2.2000      1.9439      1.6758      1.4236      1.2113      1.0383     0.90014     0.81047    
 0.78382     0.81474     0.89458      1.0274      1.2113      1.4259      1.6594      1.9198      2.2000      2.4559    
  2.6433      2.7545      2.7957      2.7564      2.6286      2.4329      1.9471      1.7630      1.5632      1.3633    
  1.1886      1.0481     0.93494     0.85254     0.81426     0.81914     0.85613     0.92930      1.0497      1.2052    
  1.3704      1.5426      1.7363      1.9411      2.1179      2.2387      2.3016      2.3046      2.2387      2.1112    
  1.6946      1.5718      1.4378      1.2988      1.1720      1.0702     0.98975     0.92764     0.89254     0.88787    
 0.90189     0.92961     0.98592      1.0803      1.1960      1.3122      1.4303      1.5590      1.6878      1.7943    
  1.8653      1.8945      1.8732      1.8010      1.4610      1.3892      1.3128      1.2351      1.1646      1.1110    
  1.0731      1.0438      1.0243      1.0202      1.0263      1.0311      1.0372      1.0615      1.1125      1.1803    
  1.2514      1.3222      1.3924      1.4576      1.5111      1.5455      1.5502      1.5196      1.2579      1.2288    
  1.2011      1.1789      1.1658      1.1663      1.1796      1.1973      1.2113      1.2212      1.2284      1.2274    
  1.2113      1.1836      1.1595      1.1528      1.1658      1.1900      1.2155      1.2378      1.2579      1.2759    
  1.2857      1.2797      1.0918      1.0965      1.1101      1.1366      1.1774      1.2322      1.2989      1.3705    
  1.4345      1.4800      1.5027      1.5043      1.4840      1.4378      1.3668      1.2854      1.2144      1.1658    
  1.1367      1.1173      1.1023      1.0929      1.0899      1.0903     0.96818     0.99504      1.0413      1.1099    
  1.2009      1.3098      1.4304      1.5559      1.6757      1.7735      1.8341      1.8522      1.8322      1.7790    
  1.6922      1.5729      1.4340      1.2988      1.1867      1.1027      1.0412     0.99658     0.96857     0.95911    
 0.89274     0.92711     0.99445      1.0958      1.2308      1.3928      1.5712      1.7552      1.9334      2.0905    
  2.2071      2.2659      2.2608      2.1989      2.0931      1.9518      1.7787      1.5842      1.3906      1.2222    
  1.0904     0.99320     0.92675     0.89242      1.1669      1.2055      1.3171      1.4982      1.7456      2.0516    
  2.4034      2.7830      3.1662      3.5218      3.8146      4.0091      4.0752      4.0000      3.7989      3.5089    
  3.1662      2.7945      2.4148      2.0559      1.7456      1.4982      1.3168      1.2045      1.2052      1.2058    
  1.3031      1.4925      1.7687      2.1246      2.5504      3.0307      3.5382      4.0317      4.4637      4.7900    
  4.9706      4.9734      4.7894      4.4481      4.0064      3.5204      3.0283      2.5569      2.1314      1.7727    
  1.4938      1.3024      1.3172      1.2577      1.3167      1.4930      1.7792      2.1653      2.6443      3.2077    
  3.8327      4.4742      5.0717      5.5622      5.8905      6.0137      5.9075      5.5782      5.0703      4.4576    
  3.8168      3.2038      2.6488      2.1688      1.7790      1.4924      1.5002      1.3629      1.3592      1.4971    
  1.7727      2.1704      2.6810      3.3039      4.0247      4.8008      5.5680      6.2497      6.7633      7.0398    
  7.0452      6.7815      6.2760      5.5853      4.8001      4.0188      3.3051      2.6830      2.1649      1.7674    
  1.7456      1.5201      1.4359      1.5074      1.7456      2.1336      2.6525      3.3070      4.0969      4.9827    
  5.8980      6.7683      7.4988      7.9783      8.1327      7.9603      7.4989      6.7929      5.9152      4.9807    
  4.0969      3.3143      2.6483      2.1196      2.0423      1.7199      1.5492      1.5337      1.7033      2.0553    
  2.5575      3.2075      4.0266      4.9905      6.0228      7.0467      7.9830      8.7054      9.0773      9.0475    
  8.6599      7.9773      7.0605      6.0150      4.9782      4.0383      3.2194      2.5427      2.3840      1.9494    