unknown system                          
   1.00000000000000     
     3.190316    0.000000    0.000000
    -1.595158    2.762894    0.000000
     0.000000    0.000000   26.879004
   Mo   S 
     1     2
Direct
  0.333333  0.666667  0.138389
  0.666667  0.333333  0.080169
  0.666666  0.333333  0.196608
 
   24   24  216
 0.36940476536E+00 0.37484178314E+00 0.38954022557E+00 0.41503281321E+00 0.45387364089E+00
 0.50544329497E+00 0.56543739782E+00 0.62866395308E+00 0.69056527190E+00 0.74718311350E+00
 0.79468502778E+00 0.82745032458E+00 0.83748393018E+00 0.82036717613E+00 0.78256060424E+00
 0.73723926090E+00 0.69056385454E+00 0.63750542567E+00 0.57425017004E+00 0.50872783547E+00
 0.45386004071E+00 0.41497186500E+00 0.38928004500E+00 0.37407812837E+00 0.37457233936E+00
 0.37508554289E+00 0.38857115255E+00 0.41560688225E+00 0.45801394827E+00 0.51639080737E+00
 0.58896596582E+00 0.67165415950E+00 0.75719311588E+00 0.83617934179E+00 0.90197651119E+00
 0.95247061768E+00 0.98374800819E+00 0.98596294656E+00 0.95217007410E+00 0.88977447275E+00
 0.81619947780E+00 0.74287283476E+00 0.66946589887E+00 0.59405974691E+00 0.52185509317E+00
 0.46124559514E+00 0.41660617104E+00 0.38803480866E+00 0.38965808810E+00 0.38092683262E+00
 0.38920671933E+00 0.41605620533E+00 0.46132877659E+00 0.52347568610E+00 0.60225237615E+00
 0.69728333679E+00 0.80290100784E+00 0.90706165099E+00 0.99742368742E+00 0.10676247989E+01
 0.11160889627E+01 0.11393716356E+01 0.11294596504E+01 0.10801486573E+01 0.99617295682E+00
 0.89377230656E+00 0.79037001791E+00 0.69434418519E+00 0.60599882104E+00 0.52638334803E+00
 0.46116789554E+00 0.41558031637E+00 0.41653473939E+00 0.39554678625E+00 0.39269405659E+00
 0.41417659826E+00 0.46135885444E+00 0.52769696244E+00 0.61032369624E+00 0.71250831317E+00
 0.83166488105E+00 0.95506362560E+00 0.10692377728E+01 0.11649022151E+01 0.12334886388E+01
 0.12691471087E+01 0.12733284540E+01 0.12476549423E+01 0.11854809020E+01 0.10828083111E+01
 0.95476507322E+00 0.82731145866E+00 0.71365992911E+00 0.61188428938E+00 0.52330040710E+00
 0.45713679373E+00 0.45386002626E+00 0.42100252223E+00 0.40364652706E+00 0.41097437477E+00
 0.45386304448E+00 0.52371014385E+00 0.60917073832E+00 0.71531962669E+00 0.84615251130E+00
 0.98607437281E+00 0.11170465157E+01 0.12351163936E+01 0.13334250166E+01 0.13914812001E+01
 0.14005125174E+01 0.13772740478E+01 0.13334198291E+01 0.12545724126E+01 0.11308167055E+01
 0.98470547210E+00 0.84615427962E+00 0.72086371986E+00 0.60562079166E+00 0.51259421659E+00
 0.49798259755E+00 0.45309877180E+00 0.42469380678E+00 0.41243826738E+00 0.43993437101E+00
 0.50816134704E+00 0.59460703078E+00 0.69756357339E+00 0.83370142690E+00 0.99263315990E+00
 0.11412924949E+01 0.12712897113E+01 0.13938121967E+01 0.14915801120E+01 0.15282004395E+01
 0.15047714010E+01 0.14558971225E+01 0.13895131224E+01 0.12822027413E+01 0.11351311438E+01
 0.98272690159E+00 0.84265968534E+00 0.70660949045E+00 0.58282032448E+00 0.54996544288E+00
 0.48559738642E+00 0.45152899495E+00 0.42418266423E+00 0.42730940703E+00 0.48401579858E+00
 0.57088312546E+00 0.66574572985E+00 0.79055729362E+00 0.95909690797E+00 0.11324614814E+01
 0.12747604545E+01 0.14023813413E+01 0.15292923769E+01 0.16157686817E+01 0.16242406818E+01
 0.15777318993E+01 0.15115052759E+01 0.14145103744E+01 0.12699374624E+01 0.11065319695E+01
 0.95784799845E+00 0.81503279320E+00 0.66844006767E+00 0.61498156585E+00 0.51905717595E+00
 0.47597655507E+00 0.44394363136E+00 0.42363293799E+00 0.45633977542E+00 0.54027494213E+00
 0.63348899099E+00 0.73747603411E+00 0.89101013190E+00 0.10812899099E+01 0.12480848380E+01
 0.13772742292E+01 0.15042677086E+01 0.16234758341E+01 0.16816540590E+01 0.16656047051E+01
 0.16128834730E+01 0.15325090961E+01 0.13982516720E+01 0.12232818962E+01 0.10587215547E+01
 0.91477610973E+00 0.76285080448E+00 0.69056386218E+00 0.56025300594E+00 0.49494468998E+00
 0.46219399092E+00 0.42973861777E+00 0.43111128272E+00 0.49823465560E+00 0.59609100668E+00
 0.69056597538E+00 0.81392779096E+00 0.99435347636E+00 0.11852698083E+01 0.13334263620E+01
 0.14547576747E+01 0.15761286515E+01 0.16649123521E+01 0.16837234658E+01 0.16542089962E+01
 0.16020166290E+01 0.15005619440E+01 0.13334198623E+01 0.11499984705E+01 0.99579492196E+00
 0.84962484678E+00 0.76115322762E+00 0.61100793244E+00 0.51401623446E+00 0.47198991052E+00
 0.43923248922E+00 0.41612464170E+00 0.44954140614E+00 0.53962906620E+00 0.63807931534E+00
 0.74081134548E+00 0.89026797250E+00 0.10814625640E+01 0.12553173892E+01 0.13897364072E+01
 0.15108779572E+01 0.16129619286E+01 0.16549067420E+01 0.16382563399E+01 0.16018467761E+01
 0.15394305985E+01 0.14099546936E+01 0.12283440071E+01 0.10577547826E+01 0.91319424441E+00
 0.81006179556E+00 0.66148612469E+00 0.53977435558E+00 0.47641709923E+00 0.44411924612E+00
 0.41373967239E+00 0.41325998264E+00 0.47323786805E+00 0.56734361662E+00 0.66403431953E+00
 0.78419287799E+00 0.95033674806E+00 0.11296585324E+01 0.12821601215E+01 0.14142734080E+01
 0.15332718760E+01 0.16036298437E+01 0.16024720297E+01 0.15639827891E+01 0.15159351766E+01
 0.14280137101E+01 0.12764114040E+01 0.11023365397E+01 0.95114425794E+00 0.83340408257E+00
 0.69736208834E+00 0.56965782205E+00 0.48384592388E+00 0.44218673012E+00 0.41466962447E+00
 0.39878794692E+00 0.42379643640E+00 0.49354977907E+00 0.58138343468E+00 0.68301122773E+00
 0.81828984905E+00 0.97937901464E+00 0.11320870977E+01 0.12676031908E+01 0.13975734038E+01
 0.15017141539E+01 0.15398284675E+01 0.15147354649E+01 0.14647579428E+01 0.13957514580E+01
 0.12806211160E+01 0.11248147105E+01 0.97038019650E+00 0.83748397206E+00 0.71163468529E+00
 0.59242859518E+00 0.49669290509E+00 0.43910085373E+00 0.40880899776E+00 0.39228629736E+00
 0.39850084648E+00 0.43909330484E+00 0.50604037434E+00 0.59071333467E+00 0.70102138107E+00
 0.83748777712E+00 0.97699053444E+00 0.11021573404E+01 0.12207550399E+01 0.13334264025E+01
 0.14104465239E+01 0.14266660777E+01 0.13939090628E+01 0.13334250903E+01 0.12425742084E+01
 0.11157109321E+01 0.97260541857E+00 0.82632063497E+00 0.70732952406E+00 0.59908118192E+00
 0.50790876845E+00 0.44113820518E+00 0.39982754924E+00 0.37990708625E+00 0.38045743279E+00
 0.40337198442E+00 0.44722402143E+00 0.51054258856E+00 0.59776654345E+00 0.71054007774E+00
 0.83549657660E+00 0.95298651704E+00 0.10564188750E+01 0.11502205479E+01 0.12297308498E+01
 0.12774102450E+01 0.12809052246E+01 0.12427533868E+01 0.11706350035E+01 0.10702746127E+01
 0.95084669972E+00 0.79795350993E+00 0.69053690965E+00 0.59064786582E+00 0.50919216474E+00
 0.44630205395E+00 0.39835757586E+00 0.36853038600E+00 0.36176789738E+00 0.37515109875E+00
 0.40247793994E+00 0.44466923384E+00 0.50789280398E+00 0.59398181966E+00 0.69756819837E+00
 0.80842560860E+00 0.91266187386E+00 0.99762196128E+00 0.10602861492E+01 0.11049083258E+01
 0.11290272188E+01 0.11203149990E+01 0.10723207587E+01 0.99453330532E+00 0.90095067743E+00
 0.75123698055E+00 0.66382618938E+00 0.57414076638E+00 0.49994980172E+00 0.44655021950E+00
 0.40383065120E+00 0.36929320144E+00 0.35282380788E+00 0.35672643165E+00 0.37205284701E+00
 0.39690401968E+00 0.43900030709E+00 0.49944581756E+00 0.57240043425E+00 0.65846043643E+00
 0.75763134992E+00 0.85190122723E+00 0.91758788658E+00 0.95352304272E+00 0.97479399843E+00
 0.98136158537E+00 0.95755462339E+00 0.90148776794E+00 0.82957959961E+00 0.69056528970E+00
 0.62663785179E+00 0.55365764055E+00 0.48630499035E+00 0.43911827256E+00 0.40605879289E+00
 0.37688556842E+00 0.35714151520E+00 0.35411454454E+00 0.36087025971E+00 0.37188263820E+00
 0.39630402110E+00 0.43909328459E+00 0.48871056815E+00 0.53984244454E+00 0.60596769187E+00
 0.69056598558E+00 0.76819758723E+00 0.81484204064E+00 0.83624901183E+00 0.84615254933E+00
 0.83829970544E+00 0.80252298744E+00 0.74850125055E+00 0.62377956994E+00 0.58013739832E+00
 0.52841459919E+00 0.47324340205E+00 0.43043601875E+00 0.40326806795E+00 0.38178302066E+00
 0.36494679372E+00 0.36045479154E+00 0.36480218619E+00 0.36817236679E+00 0.37670276637E+00
 0.40426485475E+00 0.44475782498E+00 0.47964231729E+00 0.51083070385E+00 0.55728704778E+00
 0.61888965066E+00 0.67215018638E+00 0.70342440038E+00 0.71920191195E+00 0.72199574478E+00
 0.70368781789E+00 0.66627556366E+00 0.55871990002E+00 0.53000054571E+00 0.49817681108E+00
 0.46073708748E+00 0.42702305952E+00 0.40472489888E+00 0.38891947316E+00 0.37537855440E+00
 0.37016805628E+00 0.37486711058E+00 0.37851635054E+00 0.37725730398E+00 0.38556880787E+00
 0.41334490380E+00 0.44747867445E+00 0.47193530534E+00 0.49151715907E+00 0.51927115695E+00
 0.55331591718E+00 0.58234173794E+00 0.60245322808E+00 0.61340665093E+00 0.60934794160E+00
 0.58794012286E+00 0.50124695360E+00 0.48376143929E+00 0.46683407808E+00 0.44729516986E+00
 0.42798223938E+00 0.41508813061E+00 0.40740117932E+00 0.39953987985E+00 0.39366476229E+00
 0.39558044775E+00 0.40103384437E+00 0.39985402406E+00 0.39396423738E+00 0.39743641937E+00
 0.41641597664E+00 0.44119483346E+00 0.46083451213E+00 0.47466731930E+00 0.48669211096E+00
 0.49857236079E+00 0.51074713797E+00 0.52193774151E+00 0.52615197865E+00 0.51804124491E+00
 0.45387364218E+00 0.44584887356E+00 0.43952983121E+00 0.43414573834E+00 0.42971705290E+00
 0.42936505558E+00 0.43374056846E+00 0.43813394112E+00 0.43911825977E+00 0.43968283201E+00
 0.44303358854E+00 0.44508143954E+00 0.43910082073E+00 0.42633630429E+00 0.41661806976E+00
 0.41813206356E+00 0.42973861447E+00 0.44334327370E+00 0.45159414453E+00 0.45349314588E+00
 0.45386306021E+00 0.45698245419E+00 0.46095074322E+00 0.46033327423E+00 0.41650434998E+00
 0.41635737166E+00 0.41855584677E+00 0.42419645432E+00 0.43280373875E+00 0.44466741012E+00
 0.46078561538E+00 0.47959933421E+00 0.49597418870E+00 0.50557223034E+00 0.50924069360E+00
 0.51051003301E+00 0.50881283600E+00 0.49845136468E+00 0.47646560989E+00 0.44954748037E+00
 0.42974595494E+00 0.42298834244E+00 0.42423117981E+00 0.42465502232E+00 0.42121257743E+00
 0.41730807597E+00 0.41610474202E+00 0.41658421382E+00 0.38939477256E+00 0.39445249939E+00
 0.40354004017E+00 0.41850731857E+00 0.43938436908E+00 0.46415778390E+00 0.49160475010E+00
 0.52201013220E+00 0.55351217422E+00 0.57971465989E+00 0.59406176704E+00 0.59643139740E+00
 0.59228315180E+00 0.58421476528E+00 0.56742098652E+00 0.53641013311E+00 0.49479924021E+00
 0.45497275609E+00 0.42738972495E+00 0.41242851165E+00 0.40350106092E+00 0.39577699444E+00
 0.38973022056E+00 0.38754530621E+00 0.37378802540E+00 0.38064880007E+00 0.39398619664E+00
 0.41584254221E+00 0.44760864199E+00 0.48690401593E+00 0.52953422843E+00 0.57326661979E+00
 0.61738640413E+00 0.65871856016E+00 0.69007057743E+00 0.70421340582E+00 0.69993250682E+00
 0.68327145847E+00 0.66101983051E+00 0.63293553349E+00 0.59311881901E+00 0.54052729627E+00
 0.48513110132E+00 0.44036719549E+00 0.41118210000E+00 0.39293014104E+00 0.38046052664E+00
 0.37359338960E+00 0.49000143118E+00 0.49933225010E+00 0.52564268685E+00 0.57059958467E+00
 0.63670125239E+00 0.72251392723E+00 0.82192527007E+00 0.92707641846E+00 0.10301148833E+01
 0.11235142414E+01 0.12001119362E+01 0.12515694285E+01 0.12679644831E+01 0.12441029356E+01
 0.11872826056E+01 0.11129515874E+01 0.10300867305E+01 0.93645079818E+00 0.83128301232E+00
 0.72600523265E+00 0.63669607826E+00 0.57054761761E+00 0.52537047184E+00 0.49851681981E+00
 0.49904270160E+00 0.49956835981E+00 0.52382397285E+00 0.57209085598E+00 0.64561793984E+00
 0.74391266556E+00 0.86336459881E+00 0.99718919861E+00 0.11345270337E+01 0.12617508416E+01
 0.13680952686E+01 0.14480445125E+01 0.14950552326E+01 0.14974186503E+01 0.14477559078E+01
 0.13551961146E+01 0.12406413752E+01 0.11194545100E+01 0.99494539497E+00 0.86874546271E+00
 0.74962607070E+00 0.64899274321E+00 0.57316222827E+00 0.52329381020E+00 0.52575227457E+00
 0.51010288265E+00 0.52529378483E+00 0.57256649453E+00 0.65074563799E+00 0.75670384383E+00
 0.88820135064E+00 0.10422698883E+01 0.12097070993E+01 0.13739789695E+01 0.15178417701E+01
 0.16303745266E+01 0.17062731841E+01 0.17393996459E+01 0.17203942957E+01 0.16436093334E+01
 0.15165594190E+01 0.13600101418E+01 0.11965080727E+01 0.10391212497E+01 0.89207521999E+00
 0.75973355116E+00 0.65058273687E+00 0.57206431844E+00 0.57217095012E+00 0.53468497444E+00
 0.53170012637E+00 0.56971809367E+00 0.64909378029E+00 0.76109320665E+00 0.90038653106E+00
 0.10677342571E+01 0.12572581699E+01 0.14517650541E+01 0.16325986239E+01 0.17850209913E+01
 0.18951150014E+01 0.19527271228E+01 0.19571392894E+01 0.19100701131E+01 0.18067592748E+01
 0.16469482639E+01 0.14514511404E+01 0.12526186679E+01 0.10688953773E+01 0.90202624348E+00
 0.75648642613E+00 0.64464770255E+00 0.63669606381E+00 0.57597929622E+00 0.54874341664E+00
 0.56540384099E+00 0.63669218519E+00 0.75156029218E+00 0.89537940523E+00 0.10706057951E+01
 0.12783795286E+01 0.14986961334E+01 0.17081393302E+01 0.18972339130E+01 0.20529017194E+01
 0.21480200333E+01 0.21693315709E+01 0.21330373854E+01 0.20528954496E+01 0.19177360842E+01
 0.17226207038E+01 0.14972134522E+01 0.12783856549E+01 0.10765037208E+01 0.89169343099E+00
 0.73986851247E+00 0.71468072451E+00 0.62974160168E+00 0.58013902542E+00 0.56720943186E+00
 0.61585745595E+00 0.72542065763E+00 0.86930181758E+00 0.10424665869E+01 0.12593158763E+01
 0.15055704173E+01 0.17423251581E+01 0.19555417927E+01 0.21506943044E+01 0.23027956127E+01
 0.23676058495E+01 0.23428724411E+01 0.22651207548E+01 0.21461369335E+01 0.19670326448E+01
 0.17357991353E+01 0.14951206223E+01 0.12688140749E+01 0.10520695511E+01 0.85689509925E+00
 0.80564510962E+00 0.68888484020E+00 0.62188797999E+00 0.58235458760E+00 0.59633022787E+00
 0.68724899687E+00 0.82778251601E+00 0.99105016364E+00 0.11966981870E+01 0.14559863857E+01
 0.17243132967E+01 0.19591466533E+01 0.21715452593E+01 0.23688275763E+01 0.25017524208E+01
 0.25252414194E+01 0.24615941665E+01 0.23500478851E+01 0.21843588968E+01 0.19540843697E+01
 0.16969827923E+01 0.14546982497E+01 0.12225277831E+01 0.99384750861E+00 0.91265403212E+00
 0.75262409947E+00 0.66511207622E+00 0.60928214289E+00 0.58781687690E+00 0.64435355887E+00
 0.77505902804E+00 0.93228978472E+00 0.11138249700E+01 0.13571021999E+01 0.16453078243E+01
 0.19108528596E+01 0.21332051539E+01 0.23423985411E+01 0.25244436448E+01 0.26160551120E+01
 0.25991247786E+01 0.25132823325E+01 0.23722208855E+01 0.21553616672E+01 0.18847076506E+01
 0.16215281431E+01 0.13821831252E+01 0.11405296049E+01 0.10300867382E+01 0.82592123187E+00
 0.70539902018E+00 0.63797267295E+00 0.59239291927E+00 0.60511662635E+00 0.70881304360E+00
 0.86371560980E+00 0.10300902721E+01 0.12382866131E+01 0.15146875149E+01 0.18065617331E+01
 0.20529052011E+01 0.22639142179E+01 0.24598997209E+01 0.25983928711E+01 0.26339202479E+01
 0.25870962837E+01 0.24872320718E+01 0.23122705387E+01 0.20528954828E+01 0.17693106929E+01
 0.15161776245E+01 0.12759407656E+01 0.11382154905E+01 0.90797817392E+00 0.74678628625E+00
 0.66032958035E+00 0.60372812277E+00 0.57933994924E+00 0.63661835734E+00 0.77375115269E+00
 0.93644796748E+00 0.11166768350E+01 0.13557516313E+01 0.16450586031E+01 0.19181902814E+01
 0.21461917880E+01 0.23493205288E+01 0.25133534680E+01 0.25878315052E+01 0.25702420020E+01
 0.25016013032E+01 0.23794608452E+01 0.21675329785E+01 0.18896771515E+01 0.16199692482E+01
 0.13799341519E+01 0.12163203778E+01 0.98559824528E+00 0.79397700931E+00 0.67822512775E+00
 0.61304421296E+00 0.57030598015E+00 0.58051185784E+00 0.67491885448E+00 0.82308962350E+00
 0.98824790876E+00 0.11889627956E+01 0.14457904941E+01 0.17205957195E+01 0.19664672886E+01
 0.21838636970E+01 0.23729606580E+01 0.24889374940E+01 0.25022706601E+01 0.24470767718E+01
 0.23546575903E+01 0.21983693444E+01 0.19603864235E+01 0.16917383638E+01 0.14466580365E+01
 0.12578594950E+01 0.10412090037E+01 0.84195317462E+00 0.69866196428E+00 0.61701679590E+00
 0.56826248717E+00 0.55151761716E+00 0.59767476991E+00 0.70901502237E+00 0.85441128347E+00
 0.10260645281E+01 0.12418683354E+01 0.14904136707E+01 0.17316757070E+01 0.19510869789E+01
 0.21544516161E+01 0.23134960423E+01 0.23799518592E+01 0.23534472853E+01 0.22744670682E+01
 0.21525449333E+01 0.19648603250E+01 0.17240193419E+01 0.14809404661E+01 0.12679645250E+01
 0.10656398321E+01 0.87681033938E+00 0.72214470146E+00 0.62004362415E+00 0.56183157384E+00
 0.53534303547E+00 0.55090658169E+00 0.62003989642E+00 0.73207611645E+00 0.87504003437E+00
 0.10544298098E+01 0.12679730279E+01 0.14879165857E+01 0.16915579467E+01 0.18816669475E+01
 0.20529052416E+01 0.21682614028E+01 0.21971831712E+01 0.21507593926E+01 0.20529017930E+01
 0.19047511610E+01 0.17058913938E+01 0.14832699241E+01 0.12503532963E+01 0.10611187002E+01
 0.88762831203E+00 0.73944326653E+00 0.62689450103E+00 0.55346837334E+00 0.51684325526E+00
 0.51732497122E+00 0.55704879716E+00 0.63327554197E+00 0.74224998857E+00 0.88621402251E+00
 0.10644731120E+01 0.12600886105E+01 0.14486304317E+01 0.16185785349E+01 0.17695203379E+01
 0.18915198596E+01 0.19619866125E+01 0.19656501335E+01 0.19052494744E+01 0.17911081324E+01
 0.16332145090E+01 0.14463024811E+01 0.12034787502E+01 0.10340242148E+01 0.87497917614E+00
 0.74079815590E+00 0.63403012260E+00 0.55284432331E+00 0.50216327039E+00 0.48838464845E+00
 0.50901376775E+00 0.55712628779E+00 0.63234758926E+00 0.73941003539E+00 0.87840685114E+00
 0.10414448777E+01 0.12146337753E+01 0.13793917431E+01 0.15180543316E+01 0.16231348832E+01
 0.16953086337E+01 0.17293768859E+01 0.17115061453E+01 0.16358457939E+01 0.15148568158E+01
 0.13669973797E+01 0.11277018816E+01 0.98801747475E+00 0.84674270446E+00 0.72562272709E+00
 0.63252668812E+00 0.55850696096E+00 0.50209981246E+00 0.47448142037E+00 0.47857007824E+00
 0.50502207257E+00 0.55131486842E+00 0.62462415991E+00 0.72500428471E+00 0.84484240320E+00
 0.98243652655E+00 0.11345055508E+01 0.12782995148E+01 0.13850866340E+01 0.14501750213E+01
 0.14868107605E+01 0.14936521083E+01 0.14543293669E+01 0.13681675873E+01 0.12548415451E+01
 0.10301149011E+01 0.92438492317E+00 0.80864172435E+00 0.70135795720E+00 0.62005436061E+00
 0.55987255047E+00 0.51083491501E+00 0.47900494996E+00 0.47209264999E+00 0.48290299792E+00
 0.50564697542E+00 0.54974441171E+00 0.62003987617E+00 0.70377902323E+00 0.79405187057E+00
 0.90266354280E+00 0.10300902823E+01 0.11461422941E+01 0.12223361096E+01 0.12621198667E+01
 0.12783795666E+01 0.12641554009E+01 0.12093253193E+01 0.11254806328E+01 0.92202079799E+00
 0.84686581090E+00 0.76192698115E+00 0.67494613674E+00 0.60470235624E+00 0.55596680575E+00
 0.51876156103E+00 0.49174694377E+00 0.48246985372E+00 0.48697226109E+00 0.49506408117E+00
 0.51348551010E+00 0.55711040075E+00 0.61973450074E+00 0.68159826702E+00 0.74343161654E+00
 0.82283472136E+00 0.91679622741E+00 0.99772958347E+00 0.10487354468E+01 0.10747818539E+01
 0.10776608361E+01 0.10489493327E+01 0.99160769463E+00 0.81493908135E+00 0.76420115409E+00
 0.70873199536E+00 0.64841958333E+00 0.59504870292E+00 0.55783014998E+00 0.53184624998E+00
 0.51208213147E+00 0.50384871193E+00 0.50791122072E+00 0.51251625764E+00 0.51400330439E+00
 0.52835685505E+00 0.56689795298E+00 0.61653582144E+00 0.66025846703E+00 0.70182685613E+00
 0.75288606257E+00 0.80913082313E+00 0.85635352855E+00 0.88839320406E+00 0.90363366984E+00
 0.89556936664E+00 0.86226670069E+00 0.71812548887E+00 0.68698513196E+00 0.65542587102E+00
 0.62217765321E+00 0.59182967575E+00 0.57171768804E+00 0.56059480144E+00 0.55205202537E+00
 0.54696355811E+00 0.54993088737E+00 0.55560896284E+00 0.55339305059E+00 0.54618366835E+00
 0.55011753210E+00 0.57307065543E+00 0.60574472251E+00 0.63655345098E+00 0.66376191200E+00
 0.69001368028E+00 0.71523704622E+00 0.73794017846E+00 0.75508143060E+00 0.75946850741E+00
 0.74557941897E+00 0.63670125369E+00 0.62209611180E+00 0.60923656564E+00 0.59893153966E+00
 0.59237853133E+00 0.59328900161E+00 0.60203490279E+00 0.61268710328E+00 0.62005434782E+00
 0.62540994016E+00 0.63066332541E+00 0.63103976533E+00 0.62004359115E+00 0.60033112977E+00
 0.58400645574E+00 0.58139334798E+00 0.59239291597E+00 0.60868453153E+00 0.62196814091E+00
 0.63011108837E+00 0.63669220093E+00 0.64454133459E+00 0.65036384500E+00 0.64802118232E+00
 0.57214882019E+00 0.57107375289E+00 0.57368051387E+00 0.58239794482E+00 0.59755165149E+00
 0.61948754966E+00 0.64849413845E+00 0.68155100497E+00 0.71142771905E+00 0.73150868204E+00
 0.74087271198E+00 0.74220867247E+00 0.73495337923E+00 0.71411681124E+00 0.67829966563E+00
 0.63661491249E+00 0.60369664351E+00 0.58718370091E+00 0.58242913040E+00 0.58008315578E+00
 0.57618475323E+00 0.57303978270E+00 0.57264105844E+00 0.57311421549E+00 0.52548042806E+00
 0.53355369642E+00 0.54863025011E+00 0.57360595844E+00 0.60907429774E+00 0.65266120581E+00
 0.70190804922E+00 0.75524755087E+00 0.80847945222E+00 0.85255409708E+00 0.87850821492E+00
 0.88478835891E+00 0.87664809022E+00 0.85733349681E+00 0.82317702688E+00 0.77042639539E+00
 0.70523676463E+00 0.64293909695E+00 0.59641234023E+00 0.56719073410E+00 0.54858114473E+00
 0.53494724831E+00 0.52583785147E+00 0.52272607134E+00 0.49820725554E+00 0.50985159504E+00
 0.53305490452E+00 0.57050040707E+00 0.62390023074E+00 0.69024856877E+00 0.76370234765E+00
 0.83968757992E+00 0.91473937393E+00 0.98270483556E+00 0.10335253935E+01 0.10577799242E+01
 0.10532553687E+01 0.10263274840E+01 0.98509946194E+00 0.93111949630E+00 0.86062150032E+00
 0.77529588922E+00 0.68838606596E+00 0.61629454002E+00 0.56562262632E+00 0.53193663429E+00
 0.50960408752E+00 0.49797166220E+00 0.64990112329E+00 0.66591770822E+00 0.71180462332E+00
 0.78838104406E+00 0.89682260051E+00 0.10336741089E+01 0.11901033243E+01 0.13549128467E+01
 0.15162279340E+01 0.16619241657E+01 0.17801886746E+01 0.18585919952E+01 0.18842117012E+01
 0.18506702853E+01 0.17665450902E+01 0.16506729056E+01 0.15161997443E+01 0.13649054961E+01
 0.12000657143E+01 0.10373879999E+01 0.89684288369E+00 0.78836712987E+00 0.71152724874E+00
 0.66503497688E+00 0.66560192471E+00 0.66614575858E+00 0.70781469971E+00 0.78973626764E+00
 0.91115162475E+00 0.10689648195E+01 0.12566450187E+01 0.14641470684E+01 0.16765041446E+01
 0.18747825653E+01 0.20421825170E+01 0.21673361076E+01 0.22387106787E+01 0.22412291889E+01
 0.21670334482E+01 0.20284737691E+01 0.18523918396E+01 0.16605908751E+01 0.14618569740E+01
 0.12623710017E+01 0.10749819090E+01 0.91470436176E+00 0.79089256100E+00 0.70728555624E+00
 0.71191834795E+00 0.68547844060E+00 0.71144421048E+00 0.79024888456E+00 0.91832817695E+00
 0.10892962692E+01 0.12976715010E+01 0.15374369002E+01 0.17957344655E+01 0.20507775788E+01
 0.22782655450E+01 0.24591876646E+01 0.25804333305E+01 0.26298524496E+01 0.25954106371E+01
 0.24732341757E+01 0.22769439583E+01 0.20360247955E+01 0.17817681313E+01 0.15340542329E+01
 0.13016941543E+01 0.10924535596E+01 0.91814580574E+00 0.78971331266E+00 0.79005956911E+00
 0.72769506759E+00 0.72454367170E+00 0.78747632455E+00 0.91479401786E+00 0.10938874251E+01
 0.13155930372E+01 0.15777895190E+01 0.18716406506E+01 0.21753689772E+01 0.24632766603E+01
 0.27110048971E+01 0.28934104600E+01 0.29902135006E+01 0.29949125673E+01 0.29093145704E+01
 0.27340954247E+01 0.24784999743E+01 0.21749987781E+01 0.18666490920E+01 0.15789525480E+01
 0.13173064889E+01 0.10890149233E+01 0.91008647132E+00 0.89684286924E+00 0.79519480056E+00
 0.75347388629E+00 0.78399255717E+00 0.89683139229E+00 0.10770020539E+01 0.13051363276E+01
 0.15807084905E+01 0.19027390872E+01 0.22474826295E+01 0.25851240699E+01 0.28966864585E+01
 0.31558073547E+01 0.33202400675E+01 0.33653781071E+01 0.33043770554E+01 0.31558068012E+01
 0.29183840125E+01 0.26004084063E+01 0.22458603181E+01 0.19027521425E+01 0.15870218088E+01
 0.13013030688E+01 0.10646532607E+01 0.10254077476E+01 0.88272230442E+00 0.80252429376E+00
 0.78884497344E+00 0.86804848547E+00 0.10367901714E+01 0.12629102251E+01 0.15375159054E+01
 0.18736854965E+01 0.22546877231E+01 0.26358875718E+01 0.29946013202E+01 0.33234940483E+01
 0.35795397223E+01 0.37003314171E+01 0.36740768951E+01 0.35395282821E+01 0.33186101997E+01
 0.30067727231E+01 0.26289855401E+01 0.22436417680E+01 0.18838141589E+01 0.15477806831E+01
 0.12498238280E+01 0.11728918423E+01 0.98147643560E+00 0.86742664793E+00 0.81069827845E+00
 0.84034586766E+00 0.97977673197E+00 0.11964175948E+01 0.14577704045E+01 0.17819690717E+01
 0.21797646928E+01 0.26021461122E+01 0.29983749093E+01 0.33681939084E+01 0.37016936723E+01
 0.39273815528E+01 0.39824350169E+01 0.38848089019E+01 0.36817796127E+01 0.33817820687E+01
 0.29930462993E+01 0.25732345255E+01 0.21784373987E+01 0.18093331075E+01 0.14606777491E+01
 0.13396619701E+01 0.10886011085E+01 0.93793070074E+00 0.84837525557E+00 0.82557655664E+00
 0.91585873423E+00 0.11124095275E+01 0.13606110568E+01 0.16547306844E+01 0.20329627251E+01
 0.24767336183E+01 0.29110870977E+01 0.33049171609E+01 0.36736274514E+01 0.39815669983E+01
 0.41421365026E+01 0.41242510311E+01 0.39698421000E+01 0.37052769684E+01 0.33283811400E+01
 0.28833787949E+01 0.24515639868E+01 0.20595221344E+01 0.16829089869E+01 0.15161997520E+01
 0.12065563260E+01 0.10075896544E+01 0.89081410991E+00 0.82687346887E+00 0.85595606480E+00
 0.10111450844E+01 0.12465586672E+01 0.15162009088E+01 0.18499505674E+01 0.22750231945E+01
 0.27339171522E+01 0.31558172539E+01 0.35382425848E+01 0.38830116288E+01 0.41234760766E+01
 0.41944991313E+01 0.41115076429E+01 0.39119827765E+01 0.35894954635E+01 0.31558068344E+01
 0.26944160828E+01 0.22765528674E+01 0.18898118172E+01 0.16774698072E+01 0.13311801469E+01
 0.10782642300E+01 0.92814742792E+00 0.83750704367E+00 0.81169954465E+00 0.90305596647E+00
 0.11067630800E+01 0.13611902477E+01 0.16545424681E+01 0.20290973323E+01 0.24748285771E+01
 0.29179154740E+01 0.33182871608E+01 0.36809479053E+01 0.39699403812E+01 0.41122860559E+01
 0.40935884433E+01 0.39573843067E+01 0.37128540417E+01 0.33409356709E+01 0.28877025262E+01
 0.24481834966E+01 0.20547037388E+01 0.17973250459E+01 0.14451612622E+01 0.11523556385E+01
 0.96064045567E+00 0.84747359592E+00 0.78697581058E+00 0.81304616375E+00 0.95719349590E+00
 0.11832192865E+01 0.14479195870E+01 0.17682655272E+01 0.21649048468E+01 0.25956149776E+01
 0.30048115280E+01 0.33807862791E+01 0.37059986284E+01 0.39137915853E+01 0.39580696581E+01
 0.38694277510E+01 0.36866050092E+01 0.33961580640E+01 0.29983512127E+01 0.25650218182E+01
 0.21658542384E+01 0.18652420445E+01 0.15270373308E+01 0.12222283627E+01 0.99399874348E+00
 0.85239449816E+00 0.77159038139E+00 0.75383788686E+00 0.83192967542E+00 0.10050920528E+01
 0.12355588707E+01 0.15110157522E+01 0.18482503310E+01 0.22337535796E+01 0.26216711916E+01
 0.29884936141E+01 0.33270199786E+01 0.35908012621E+01 0.37134427291E+01 0.36853757770E+01
 0.35494954248E+01 0.33250501432E+01 0.30030927958E+01 0.26135345413E+01 0.22237320620E+01
 0.18842117431E+01 0.15650097916E+01 0.12713603929E+01 0.10273664762E+01 0.85626897112E+00
 0.75381765599E+00 0.71151872306E+00 0.74217193741E+00 0.85626644820E+00 0.10379838746E+01
 0.12695448244E+01 0.15531198174E+01 0.18842259769E+01 0.22311419579E+01 0.25648350213E+01
 0.28791584786E+01 0.31558172944E+01 0.33421208328E+01 0.33953677896E+01 0.33235142176E+01
 0.31558074283E+01 0.29036781759E+01 0.25800422437E+01 0.22261836410E+01 0.18572691143E+01
 0.15602609380E+01 0.12870488848E+01 0.10501001064E+01 0.86384175603E+00 0.73684857438E+00
 0.67170528766E+00 0.67210708571E+00 0.74047466433E+00 0.87057136311E+00 0.10530984367E+01
 0.12854918782E+01 0.15637570340E+01 0.18676373636E+01 0.21679739376E+01 0.24467087619E+01
 0.26946073549E+01 0.28906588956E+01 0.30014440216E+01 0.30052586565E+01 0.29051252953E+01
 0.27175127027E+01 0.24622568002E+01 0.21654462614E+01 0.17836433851E+01 0.15194621145E+01
 0.12694877055E+01 0.10515347922E+01 0.87141846587E+00 0.73170536950E+00 0.64278750159E+00
 0.61577184046E+00 0.64987863850E+00 0.73616405088E+00 0.86968305434E+00 0.10500293303E+01
 0.12729995377E+01 0.15273337061E+01 0.17955907938E+01 0.20541480381E+01 0.22784779078E+01
 0.24532363218E+01 0.25715175834E+01 0.26221611508E+01 0.25885787814E+01 0.24667153416E+01
 0.22752019907E+01 0.20410032896E+01 0.16662411500E+01 0.14476426553E+01 0.12273785133E+01
 0.10310927807E+01 0.86972420406E+00 0.73758288767E+00 0.63791235549E+00 0.58716983670E+00
 0.59145049148E+00 0.64099665097E+00 0.73010088293E+00 0.86143907925E+00 0.10303407238E+01
 0.12253041347E+01 0.14418564562E+01 0.16735300292E+01 0.18922544664E+01 0.20625232632E+01
 0.21737015798E+01 0.22348981690E+01 0.22420379243E+01 0.21779935273E+01 0.20447144481E+01
 0.18675401818E+01 0.15162279518E+01 0.13484143376E+01 0.11679150569E+01 0.99697183332E+00
 0.85626252653E+00 0.74344774456E+00 0.65180204231E+00 0.59191466101E+00 0.57535509963E+00
 0.59599304940E+00 0.64642394965E+00 0.73293804528E+00 0.85626642795E+00 0.99937983626E+00
 0.11524393501E+01 0.13255338423E+01 0.15162009190E+01 0.16888337507E+01 0.18091429636E+01
 0.18768062488E+01 0.19027391253E+01 0.18788077571E+01 0.17953433890E+01 0.16670776954E+01
 0.13496795392E+01 0.12286778572E+01 0.10942617322E+01 0.95727705365E+00 0.83942508751E+00
 0.74757813792E+00 0.67366903162E+00 0.61932824117E+00 0.59554086002E+00 0.60021251757E+00
 0.62275136474E+00 0.66819668624E+00 0.74889873254E+00 0.85522710208E+00 0.96417300002E+00
 0.10747328584E+01 0.12033384384E+01 0.13440932357E+01 0.14647499159E+01 0.15442628224E+01
 0.15852368863E+01 0.15882077009E+01 0.15444164362E+01 0.14583468114E+01 0.11828211130E+01
 0.11009114034E+01 0.10110475866E+01 0.91553864167E+00 0.82845375121E+00 0.76058238487E+00
 0.70789029822E+00 0.66668951049E+00 0.64451981666E+00 0.64397551233E+00 0.65352440794E+00
 0.66863618358E+00 0.70423652007E+00 0.77015582694E+00 0.85110833339E+00 0.92810667002E+00
 0.10038628744E+01 0.10889122067E+01 0.11765259552E+01 0.12491837874E+01 0.12978541039E+01
 0.13190316873E+01 0.13053448360E+01 0.12554657820E+01 0.10290633142E+01 0.97952621267E+00
 0.92761523448E+00 0.87401820088E+00 0.82488206936E+00 0.78842239190E+00 0.76344698807E+00
 0.74346321770E+00 0.72997741363E+00 0.72865511376E+00 0.73456996078E+00 0.73664405015E+00
 0.73724673112E+00 0.75240787032E+00 0.78984043760E+00 0.83961486352E+00 0.88933218643E+00
 0.93649149102E+00 0.98264136711E+00 0.10259283630E+01 0.10626295598E+01 0.10875841861E+01