   3   3   1   0
  0.7897505E+02  0.3190316E-09  0.3190316E-09  0.2687900E-08  0.5000000E-15
  1.000000000000000E-004
  CAR 
 unknown system                          
     12.00000000    -12.00000000 2401     -2.61000000      1.00000000
    -12.000  0.4000E+03  0.4000E+01
    -11.990  0.0000E+00  0.4000E+01
    -11.980  0.0000E+00  0.4000E+01
    -11.970  0.0000E+00  0.4000E+01
    -11.960  0.0000E+00  0.4000E+01
    -11.950  0.0000E+00  0.4000E+01
    -11.940  0.0000E+00  0.4000E+01
    -11.930  0.0000E+00  0.4000E+01
    -11.920  0.0000E+00  0.4000E+01
    -11.910  0.0000E+00  0.4000E+01
    -11.900  0.0000E+00  0.4000E+01
    -11.890  0.0000E+00  0.4000E+01
    -11.880  0.0000E+00  0.4000E+01
    -11.870  0.0000E+00  0.4000E+01
    -11.860  0.0000E+00  0.4000E+01
    -11.850  0.0000E+00  0.4000E+01
    -11.840  0.0000E+00  0.4000E+01
    -11.830  0.0000E+00  0.4000E+01
    -11.820  0.0000E+00  0.4000E+01
    -11.810  0.0000E+00  0.4000E+01
    -11.800  0.0000E+00  0.4000E+01
    -11.790  0.0000E+00  0.4000E+01
    -11.780  0.0000E+00  0.4000E+01
    -11.770  0.0000E+00  0.4000E+01
    -11.760  0.0000E+00  0.4000E+01
    -11.750  0.0000E+00  0.4000E+01
    -11.740  0.0000E+00  0.4000E+01
    -11.730  0.0000E+00  0.4000E+01
    -11.720  0.0000E+00  0.4000E+01
    -11.710  0.0000E+00  0.4000E+01
    -11.700  0.0000E+00  0.4000E+01
    -11.690  0.0000E+00  0.4000E+01
    -11.680  0.0000E+00  0.4000E+01
    -11.670  0.0000E+00  0.4000E+01
    -11.660  0.0000E+00  0.4000E+01
    -11.650  0.0000E+00  0.4000E+01
    -11.640  0.0000E+00  0.4000E+01
    -11.630  0.0000E+00  0.4000E+01
    -11.620  0.0000E+00  0.4000E+01
    -11.610  0.0000E+00  0.4000E+01
    -11.600  0.0000E+00  0.4000E+01
    -11.590  0.0000E+00  0.4000E+01
    -11.580  0.0000E+00  0.4000E+01
    -11.570  0.0000E+00  0.4000E+01
    -11.560  0.0000E+00  0.4000E+01
    -11.550  0.0000E+00  0.4000E+01
    -11.540  0.0000E+00  0.4000E+01
    -11.530  0.0000E+00  0.4000E+01
    -11.520  0.0000E+00  0.4000E+01
    -11.510  0.0000E+00  0.4000E+01
    -11.500  0.0000E+00  0.4000E+01
    -11.490  0.0000E+00  0.4000E+01
    -11.480  0.0000E+00  0.4000E+01
    -11.470  0.0000E+00  0.4000E+01
    -11.460  0.0000E+00  0.4000E+01
    -11.450  0.0000E+00  0.4000E+01
    -11.440  0.0000E+00  0.4000E+01
    -11.430  0.0000E+00  0.4000E+01
    -11.420  0.0000E+00  0.4000E+01
    -11.410  0.0000E+00  0.4000E+01
    -11.400  0.0000E+00  0.4000E+01
    -11.390  0.0000E+00  0.4000E+01
    -11.380  0.0000E+00  0.4000E+01
    -11.370  0.0000E+00  0.4000E+01
    -11.360  0.0000E+00  0.4000E+01
    -11.350  0.0000E+00  0.4000E+01
    -11.340  0.0000E+00  0.4000E+01
    -11.330  0.0000E+00  0.4000E+01
    -11.320  0.0000E+00  0.4000E+01
    -11.310  0.0000E+00  0.4000E+01
    -11.300  0.0000E+00  0.4000E+01
    -11.290  0.0000E+00  0.4000E+01
    -11.280  0.0000E+00  0.4000E+01
    -11.270  0.0000E+00  0.4000E+01
    -11.260  0.0000E+00  0.4000E+01
    -11.250  0.0000E+00  0.4000E+01
    -11.240  0.0000E+00  0.4000E+01
    -11.230  0.0000E+00  0.4000E+01
    -11.220  0.0000E+00  0.4000E+01
    -11.210  0.0000E+00  0.4000E+01
    -11.200  0.0000E+00  0.4000E+01
    -11.190  0.0000E+00  0.4000E+01
    -11.180  0.0000E+00  0.4000E+01
    -11.170  0.0000E+00  0.4000E+01
    -11.160  0.0000E+00  0.4000E+01
    -11.150  0.0000E+00  0.4000E+01
    -11.140  0.0000E+00  0.4000E+01
    -11.130  0.0000E+00  0.4000E+01
    -11.120  0.0000E+00  0.4000E+01
    -11.110  0.0000E+00  0.4000E+01
    -11.100  0.0000E+00  0.4000E+01
    -11.090  0.0000E+00  0.4000E+01
    -11.080  0.0000E+00  0.4000E+01
    -11.070  0.0000E+00  0.4000E+01
    -11.060  0.0000E+00  0.4000E+01
    -11.050  0.0000E+00  0.4000E+01
    -11.040  0.0000E+00  0.4000E+01
    -11.030  0.0000E+00  0.4000E+01
    -11.020  0.0000E+00  0.4000E+01
    -11.010  0.0000E+00  0.4000E+01
    -11.000  0.0000E+00  0.4000E+01
    -10.990  0.0000E+00  0.4000E+01
    -10.980  0.0000E+00  0.4000E+01
    -10.970  0.0000E+00  0.4000E+01
    -10.960  0.0000E+00  0.4000E+01
    -10.950  0.0000E+00  0.4000E+01
    -10.940  0.0000E+00  0.4000E+01
    -10.930  0.0000E+00  0.4000E+01
    -10.920  0.0000E+00  0.4000E+01
    -10.910  0.0000E+00  0.4000E+01
    -10.900  0.0000E+00  0.4000E+01
    -10.890  0.0000E+00  0.4000E+01
    -10.880  0.0000E+00  0.4000E+01
    -10.870  0.0000E+00  0.4000E+01
    -10.860  0.0000E+00  0.4000E+01
    -10.850  0.0000E+00  0.4000E+01
    -10.840  0.0000E+00  0.4000E+01
    -10.830  0.0000E+00  0.4000E+01
    -10.820  0.0000E+00  0.4000E+01
    -10.810  0.0000E+00  0.4000E+01
    -10.800  0.0000E+00  0.4000E+01
    -10.790  0.0000E+00  0.4000E+01
    -10.780  0.0000E+00  0.4000E+01
    -10.770  0.0000E+00  0.4000E+01
    -10.760  0.0000E+00  0.4000E+01
    -10.750  0.0000E+00  0.4000E+01
    -10.740  0.0000E+00  0.4000E+01
    -10.730  0.0000E+00  0.4000E+01
    -10.720  0.0000E+00  0.4000E+01
    -10.710  0.0000E+00  0.4000E+01
    -10.700  0.0000E+00  0.4000E+01
    -10.690  0.0000E+00  0.4000E+01
    -10.680  0.0000E+00  0.4000E+01
    -10.670  0.0000E+00  0.4000E+01
    -10.660  0.0000E+00  0.4000E+01
    -10.650  0.0000E+00  0.4000E+01
    -10.640  0.0000E+00  0.4000E+01
    -10.630  0.0000E+00  0.4000E+01
    -10.620  0.0000E+00  0.4000E+01
    -10.610  0.0000E+00  0.4000E+01
    -10.600  0.0000E+00  0.4000E+01
    -10.590  0.0000E+00  0.4000E+01
    -10.580  0.0000E+00  0.4000E+01
    -10.570  0.0000E+00  0.4000E+01
    -10.560  0.0000E+00  0.4000E+01
    -10.550  0.0000E+00  0.4000E+01
    -10.540  0.0000E+00  0.4000E+01
    -10.530  0.0000E+00  0.4000E+01
    -10.520  0.0000E+00  0.4000E+01
    -10.510  0.0000E+00  0.4000E+01
    -10.500  0.0000E+00  0.4000E+01
    -10.490  0.0000E+00  0.4000E+01
    -10.480  0.0000E+00  0.4000E+01
    -10.470  0.0000E+00  0.4000E+01
    -10.460  0.0000E+00  0.4000E+01
    -10.450  0.0000E+00  0.4000E+01
    -10.440  0.0000E+00  0.4000E+01
    -10.430  0.0000E+00  0.4000E+01
    -10.420  0.0000E+00  0.4000E+01
    -10.410  0.0000E+00  0.4000E+01
    -10.400  0.0000E+00  0.4000E+01
    -10.390  0.0000E+00  0.4000E+01
    -10.380  0.0000E+00  0.4000E+01
    -10.370  0.0000E+00  0.4000E+01
    -10.360  0.0000E+00  0.4000E+01
    -10.350  0.0000E+00  0.4000E+01
    -10.340  0.0000E+00  0.4000E+01
    -10.330  0.0000E+00  0.4000E+01
    -10.320  0.5204E-15  0.4000E+01
    -10.310  0.5204E-15  0.4000E+01
    -10.300  0.5204E-15  0.4000E+01
    -10.290  0.1041E-14  0.4000E+01
    -10.280  0.2082E-14  0.4000E+01
    -10.270  0.3643E-14  0.4000E+01
    -10.260  0.6245E-14  0.4000E+01
    -10.250  0.1093E-13  0.4000E+01
    -10.240  0.1874E-13  0.4000E+01
    -10.230  0.3279E-13  0.4000E+01
    -10.220  0.5673E-13  0.4000E+01
    -10.210  0.9628E-13  0.4000E+01
    -10.200  0.1650E-12  0.4000E+01
    -10.190  0.2789E-12  0.4000E+01
    -10.180  0.4705E-12  0.4000E+01
    -10.170  0.7895E-12  0.4000E+01
    -10.160  0.1318E-11  0.4000E+01
    -10.150  0.2189E-11  0.4000E+01
    -10.140  0.3619E-11  0.4000E+01
    -10.130  0.5952E-11  0.4000E+01
    -10.120  0.9741E-11  0.4000E+01
    -10.110  0.1586E-10  0.4000E+01
    -10.100  0.2570E-10  0.4000E+01
    -10.090  0.4143E-10  0.4000E+01
    -10.080  0.6645E-10  0.4000E+01
    -10.070  0.1061E-09  0.4000E+01
    -10.060  0.1685E-09  0.4000E+01
    -10.050  0.2662E-09  0.4000E+01
    -10.040  0.4186E-09  0.4000E+01
    -10.030  0.6548E-09  0.4000E+01
    -10.020  0.1019E-08  0.4000E+01
    -10.010  0.1579E-08  0.4000E+01
    -10.000  0.2434E-08  0.4000E+01
     -9.990  0.3732E-08  0.4000E+01
     -9.980  0.5695E-08  0.4000E+01
     -9.970  0.8646E-08  0.4000E+01
     -9.960  0.1306E-07  0.4000E+01
     -9.950  0.1964E-07  0.4000E+01
     -9.940  0.2937E-07  0.4000E+01
     -9.930  0.4371E-07  0.4000E+01
     -9.920  0.6473E-07  0.4000E+01
     -9.910  0.9537E-07  0.4000E+01
     -9.900  0.1398E-06  0.4000E+01
     -9.890  0.2040E-06  0.4000E+01
     -9.880  0.2961E-06  0.4000E+01
     -9.870  0.4276E-06  0.4000E+01
     -9.860  0.6146E-06  0.4000E+01
     -9.850  0.8788E-06  0.4000E+01
     -9.840  0.1250E-05  0.4000E+01
     -9.830  0.1770E-05  0.4000E+01
     -9.820  0.2494E-05  0.4000E+01
     -9.810  0.3495E-05  0.4000E+01
     -9.800  0.4875E-05  0.4000E+01
     -9.790  0.6766E-05  0.4000E+01
     -9.780  0.9342E-05  0.4000E+01
     -9.770  0.1284E-04  0.4000E+01
     -9.760  0.1755E-04  0.4000E+01
     -9.750  0.2387E-04  0.4000E+01
     -9.740  0.3231E-04  0.4000E+01
     -9.730  0.4352E-04  0.4000E+01
     -9.720  0.5832E-04  0.4000E+01
     -9.710  0.7777E-04  0.4000E+01
     -9.700  0.1032E-03  0.4000E+01
     -9.690  0.1362E-03  0.4000E+01
     -9.680  0.1790E-03  0.4000E+01
     -9.670  0.2339E-03  0.4000E+01
     -9.660  0.3043E-03  0.4000E+01
     -9.650  0.3938E-03  0.4000E+01
     -9.640  0.5072E-03  0.4000E+01
     -9.630  0.6499E-03  0.4000E+01
     -9.620  0.8286E-03  0.4000E+01
     -9.610  0.1051E-02  0.4000E+01
     -9.600  0.1327E-02  0.4000E+01
     -9.590  0.1667E-02  0.4000E+01
     -9.580  0.2084E-02  0.4000E+01
     -9.570  0.2593E-02  0.4000E+01
     -9.560  0.3209E-02  0.4000E+01
     -9.550  0.3952E-02  0.4000E+01
     -9.540  0.4844E-02  0.4000E+01
     -9.530  0.5908E-02  0.4000E+01
     -9.520  0.7170E-02  0.4000E+01
     -9.510  0.8659E-02  0.4000E+01
     -9.500  0.1041E-01  0.4001E+01
     -9.490  0.1245E-01  0.4001E+01
     -9.480  0.1481E-01  0.4001E+01
     -9.470  0.1754E-01  0.4001E+01
     -9.460  0.2068E-01  0.4001E+01
     -9.450  0.2426E-01  0.4001E+01
     -9.440  0.2832E-01  0.4002E+01
     -9.430  0.3291E-01  0.4002E+01
     -9.420  0.3806E-01  0.4002E+01
     -9.410  0.4382E-01  0.4003E+01
     -9.400  0.5021E-01  0.4003E+01
     -9.390  0.5727E-01  0.4004E+01
     -9.380  0.6502E-01  0.4005E+01
     -9.370  0.7350E-01  0.4005E+01
     -9.360  0.8271E-01  0.4006E+01
     -9.350  0.9268E-01  0.4007E+01
     -9.340  0.1034E+00  0.4008E+01
     -9.330  0.1149E+00  0.4009E+01
     -9.320  0.1272E+00  0.4011E+01
     -9.310  0.1402E+00  0.4012E+01
     -9.300  0.1539E+00  0.4014E+01
     -9.290  0.1684E+00  0.4015E+01
     -9.280  0.1837E+00  0.4017E+01
     -9.270  0.1996E+00  0.4019E+01
     -9.260  0.2163E+00  0.4021E+01
     -9.250  0.2336E+00  0.4024E+01
     -9.240  0.2517E+00  0.4026E+01
     -9.230  0.2706E+00  0.4029E+01
     -9.220  0.2902E+00  0.4032E+01
     -9.210  0.3107E+00  0.4035E+01
     -9.200  0.3321E+00  0.4038E+01
     -9.190  0.3546E+00  0.4042E+01
     -9.180  0.3781E+00  0.4045E+01
     -9.170  0.4029E+00  0.4049E+01
     -9.160  0.4292E+00  0.4054E+01
     -9.150  0.4571E+00  0.4058E+01
     -9.140  0.4867E+00  0.4063E+01
     -9.130  0.5184E+00  0.4068E+01
     -9.120  0.5523E+00  0.4074E+01
     -9.110  0.5886E+00  0.4080E+01
     -9.100  0.6276E+00  0.4086E+01
     -9.090  0.6695E+00  0.4093E+01
     -9.080  0.7144E+00  0.4100E+01
     -9.070  0.7625E+00  0.4107E+01
     -9.060  0.8140E+00  0.4116E+01
     -9.050  0.8690E+00  0.4124E+01
     -9.040  0.9274E+00  0.4134E+01
     -9.030  0.9893E+00  0.4143E+01
     -9.020  0.1055E+01  0.4154E+01
     -9.010  0.1123E+01  0.4165E+01
     -9.000  0.1195E+01  0.4177E+01
     -8.990  0.1269E+01  0.4190E+01
     -8.980  0.1346E+01  0.4203E+01
     -8.970  0.1424E+01  0.4218E+01
     -8.960  0.1504E+01  0.4233E+01
     -8.950  0.1586E+01  0.4248E+01
     -8.940  0.1667E+01  0.4265E+01
     -8.930  0.1748E+01  0.4283E+01
     -8.920  0.1829E+01  0.4301E+01
     -8.910  0.1907E+01  0.4320E+01
     -8.900  0.1984E+01  0.4340E+01
     -8.890  0.2057E+01  0.4360E+01
     -8.880  0.2127E+01  0.4382E+01
     -8.870  0.2193E+01  0.4404E+01
     -8.860  0.2254E+01  0.4426E+01
     -8.850  0.2310E+01  0.4449E+01
     -8.840  0.2361E+01  0.4473E+01
     -8.830  0.2406E+01  0.4497E+01
     -8.820  0.2445E+01  0.4521E+01
     -8.810  0.2478E+01  0.4546E+01
     -8.800  0.2505E+01  0.4571E+01
     -8.790  0.2527E+01  0.4596E+01
     -8.780  0.2543E+01  0.4622E+01
     -8.770  0.2554E+01  0.4647E+01
     -8.760  0.2560E+01  0.4673E+01
     -8.750  0.2563E+01  0.4699E+01
     -8.740  0.2562E+01  0.4724E+01
     -8.730  0.2559E+01  0.4750E+01
     -8.720  0.2554E+01  0.4775E+01
     -8.710  0.2549E+01  0.4801E+01
     -8.700  0.2543E+01  0.4826E+01
     -8.690  0.2539E+01  0.4852E+01
     -8.680  0.2536E+01  0.4877E+01
     -8.670  0.2536E+01  0.4902E+01
     -8.660  0.2540E+01  0.4928E+01
     -8.650  0.2548E+01  0.4953E+01
     -8.640  0.2560E+01  0.4979E+01
     -8.630  0.2579E+01  0.5005E+01
     -8.620  0.2603E+01  0.5031E+01
     -8.610  0.2633E+01  0.5057E+01
     -8.600  0.2670E+01  0.5084E+01
     -8.590  0.2714E+01  0.5111E+01
     -8.580  0.2764E+01  0.5139E+01
     -8.570  0.2820E+01  0.5167E+01
     -8.560  0.2882E+01  0.5196E+01
     -8.550  0.2949E+01  0.5225E+01
     -8.540  0.3022E+01  0.5255E+01
     -8.530  0.3099E+01  0.5286E+01
     -8.520  0.3179E+01  0.5318E+01
     -8.510  0.3261E+01  0.5351E+01
     -8.500  0.3346E+01  0.5384E+01
     -8.490  0.3431E+01  0.5418E+01
     -8.480  0.3515E+01  0.5454E+01
     -8.470  0.3598E+01  0.5490E+01
     -8.460  0.3679E+01  0.5526E+01
     -8.450  0.3755E+01  0.5564E+01
     -8.440  0.3828E+01  0.5602E+01
     -8.430  0.3894E+01  0.5641E+01
     -8.420  0.3954E+01  0.5681E+01
     -8.410  0.4007E+01  0.5721E+01
     -8.400  0.4052E+01  0.5761E+01
     -8.390  0.4087E+01  0.5802E+01
     -8.380  0.4114E+01  0.5843E+01
     -8.370  0.4130E+01  0.5885E+01
     -8.360  0.4135E+01  0.5926E+01
     -8.350  0.4130E+01  0.5967E+01
     -8.340  0.4114E+01  0.6008E+01
     -8.330  0.4087E+01  0.6049E+01
     -8.320  0.4049E+01  0.6090E+01
     -8.310  0.4001E+01  0.6130E+01
     -8.300  0.3941E+01  0.6169E+01
     -8.290  0.3871E+01  0.6208E+01
     -8.280  0.3792E+01  0.6246E+01
     -8.270  0.3703E+01  0.6283E+01
     -8.260  0.3605E+01  0.6319E+01
     -8.250  0.3499E+01  0.6354E+01
     -8.240  0.3386E+01  0.6388E+01
     -8.230  0.3267E+01  0.6420E+01
     -8.220  0.3142E+01  0.6452E+01
     -8.210  0.3012E+01  0.6482E+01
     -8.200  0.2879E+01  0.6511E+01
     -8.190  0.2743E+01  0.6538E+01
     -8.180  0.2605E+01  0.6564E+01
     -8.170  0.2467E+01  0.6589E+01
     -8.160  0.2329E+01  0.6612E+01
     -8.150  0.2192E+01  0.6634E+01
     -8.140  0.2058E+01  0.6655E+01
     -8.130  0.1926E+01  0.6674E+01
     -8.120  0.1799E+01  0.6692E+01
     -8.110  0.1675E+01  0.6709E+01
     -8.100  0.1558E+01  0.6724E+01
     -8.090  0.1446E+01  0.6739E+01
     -8.080  0.1340E+01  0.6752E+01
     -8.070  0.1241E+01  0.6764E+01
     -8.060  0.1149E+01  0.6776E+01
     -8.050  0.1064E+01  0.6787E+01
     -8.040  0.9872E+00  0.6796E+01
     -8.030  0.9175E+00  0.6806E+01
     -8.020  0.8553E+00  0.6814E+01
     -8.010  0.8003E+00  0.6822E+01
     -8.000  0.7524E+00  0.6830E+01
     -7.990  0.7113E+00  0.6837E+01
     -7.980  0.6766E+00  0.6844E+01
     -7.970  0.6480E+00  0.6850E+01
     -7.960  0.6250E+00  0.6856E+01
     -7.950  0.6072E+00  0.6862E+01
     -7.940  0.5940E+00  0.6868E+01
     -7.930  0.5849E+00  0.6874E+01
     -7.920  0.5794E+00  0.6880E+01
     -7.910  0.5770E+00  0.6886E+01
     -7.900  0.5771E+00  0.6892E+01
     -7.890  0.5794E+00  0.6897E+01
     -7.880  0.5834E+00  0.6903E+01
     -7.870  0.5886E+00  0.6909E+01
     -7.860  0.5949E+00  0.6915E+01
     -7.850  0.6018E+00  0.6921E+01
     -7.840  0.6092E+00  0.6927E+01
     -7.830  0.6170E+00  0.6933E+01
     -7.820  0.6251E+00  0.6940E+01
     -7.810  0.6334E+00  0.6946E+01
     -7.800  0.6422E+00  0.6952E+01
     -7.790  0.6515E+00  0.6959E+01
     -7.780  0.6616E+00  0.6965E+01
     -7.770  0.6728E+00  0.6972E+01
     -7.760  0.6853E+00  0.6979E+01
     -7.750  0.6996E+00  0.6986E+01
     -7.740  0.7162E+00  0.6993E+01
     -7.730  0.7354E+00  0.7001E+01
     -7.720  0.7577E+00  0.7008E+01
     -7.710  0.7837E+00  0.7016E+01
     -7.700  0.8137E+00  0.7024E+01
     -7.690  0.8483E+00  0.7033E+01
     -7.680  0.8878E+00  0.7041E+01
     -7.670  0.9326E+00  0.7051E+01
     -7.660  0.9831E+00  0.7061E+01
     -7.650  0.1040E+01  0.7071E+01
     -7.640  0.1102E+01  0.7082E+01
     -7.630  0.1171E+01  0.7094E+01
     -7.620  0.1246E+01  0.7106E+01
     -7.610  0.1327E+01  0.7119E+01
     -7.600  0.1415E+01  0.7134E+01
     -7.590  0.1508E+01  0.7149E+01
     -7.580  0.1607E+01  0.7165E+01
     -7.570  0.1712E+01  0.7182E+01
     -7.560  0.1821E+01  0.7200E+01
     -7.550  0.1935E+01  0.7219E+01
     -7.540  0.2052E+01  0.7240E+01
     -7.530  0.2173E+01  0.7262E+01
     -7.520  0.2296E+01  0.7285E+01
     -7.510  0.2421E+01  0.7309E+01
     -7.500  0.2547E+01  0.7334E+01
     -7.490  0.2673E+01  0.7361E+01
     -7.480  0.2799E+01  0.7389E+01
     -7.470  0.2924E+01  0.7418E+01
     -7.460  0.3046E+01  0.7449E+01
     -7.450  0.3165E+01  0.7480E+01
     -7.440  0.3281E+01  0.7513E+01
     -7.430  0.3393E+01  0.7547E+01
     -7.420  0.3499E+01  0.7582E+01
     -7.410  0.3599E+01  0.7618E+01
     -7.400  0.3693E+01  0.7655E+01
     -7.390  0.3780E+01  0.7693E+01
     -7.380  0.3859E+01  0.7731E+01
     -7.370  0.3930E+01  0.7771E+01
     -7.360  0.3993E+01  0.7811E+01
     -7.350  0.4047E+01  0.7851E+01
     -7.340  0.4092E+01  0.7892E+01
     -7.330  0.4127E+01  0.7933E+01
     -7.320  0.4154E+01  0.7975E+01
     -7.310  0.4170E+01  0.8017E+01
     -7.300  0.4178E+01  0.8058E+01
     -7.290  0.4176E+01  0.8100E+01
     -7.280  0.4166E+01  0.8142E+01
     -7.270  0.4146E+01  0.8183E+01
     -7.260  0.4119E+01  0.8224E+01
     -7.250  0.4084E+01  0.8265E+01
     -7.240  0.4042E+01  0.8306E+01
     -7.230  0.3993E+01  0.8346E+01
     -7.220  0.3938E+01  0.8385E+01
     -7.210  0.3878E+01  0.8424E+01
     -7.200  0.3812E+01  0.8462E+01
     -7.190  0.3743E+01  0.8499E+01
     -7.180  0.3671E+01  0.8536E+01
     -7.170  0.3595E+01  0.8572E+01
     -7.160  0.3518E+01  0.8607E+01
     -7.150  0.3438E+01  0.8642E+01
     -7.140  0.3358E+01  0.8675E+01
     -7.130  0.3277E+01  0.8708E+01
     -7.120  0.3195E+01  0.8740E+01
     -7.110  0.3114E+01  0.8771E+01
     -7.100  0.3032E+01  0.8801E+01
     -7.090  0.2952E+01  0.8831E+01
     -7.080  0.2872E+01  0.8860E+01
     -7.070  0.2793E+01  0.8887E+01
     -7.060  0.2715E+01  0.8915E+01
     -7.050  0.2638E+01  0.8941E+01
     -7.040  0.2562E+01  0.8967E+01
     -7.030  0.2487E+01  0.8991E+01
     -7.020  0.2414E+01  0.9016E+01
     -7.010  0.2342E+01  0.9039E+01
     -7.000  0.2272E+01  0.9062E+01
     -6.990  0.2203E+01  0.9084E+01
     -6.980  0.2136E+01  0.9105E+01
     -6.970  0.2072E+01  0.9126E+01
     -6.960  0.2011E+01  0.9146E+01
     -6.950  0.1953E+01  0.9166E+01
     -6.940  0.1899E+01  0.9185E+01
     -6.930  0.1850E+01  0.9203E+01
     -6.920  0.1805E+01  0.9221E+01
     -6.910  0.1767E+01  0.9239E+01
     -6.900  0.1735E+01  0.9256E+01
     -6.890  0.1711E+01  0.9273E+01
     -6.880  0.1695E+01  0.9290E+01
     -6.870  0.1688E+01  0.9307E+01
     -6.860  0.1690E+01  0.9324E+01
     -6.850  0.1704E+01  0.9341E+01
     -6.840  0.1728E+01  0.9358E+01
     -6.830  0.1764E+01  0.9376E+01
     -6.820  0.1812E+01  0.9394E+01
     -6.810  0.1872E+01  0.9413E+01
     -6.800  0.1944E+01  0.9432E+01
     -6.790  0.2029E+01  0.9452E+01
     -6.780  0.2125E+01  0.9474E+01
     -6.770  0.2233E+01  0.9496E+01
     -6.760  0.2352E+01  0.9520E+01
     -6.750  0.2481E+01  0.9544E+01
     -6.740  0.2619E+01  0.9571E+01
     -6.730  0.2765E+01  0.9598E+01
     -6.720  0.2918E+01  0.9627E+01
     -6.710  0.3076E+01  0.9658E+01
     -6.700  0.3237E+01  0.9690E+01
     -6.690  0.3400E+01  0.9724E+01
     -6.680  0.3563E+01  0.9760E+01
     -6.670  0.3725E+01  0.9797E+01
     -6.660  0.3883E+01  0.9836E+01
     -6.650  0.4035E+01  0.9877E+01
     -6.640  0.4180E+01  0.9918E+01
     -6.630  0.4317E+01  0.9962E+01
     -6.620  0.4443E+01  0.1001E+02
     -6.610  0.4558E+01  0.1005E+02
     -6.600  0.4660E+01  0.1010E+02
     -6.590  0.4747E+01  0.1015E+02
     -6.580  0.4820E+01  0.1019E+02
     -6.570  0.4877E+01  0.1024E+02
     -6.560  0.4919E+01  0.1029E+02
     -6.550  0.4944E+01  0.1034E+02
     -6.540  0.4953E+01  0.1039E+02
     -6.530  0.4946E+01  0.1044E+02
     -6.520  0.4924E+01  0.1049E+02
     -6.510  0.4886E+01  0.1054E+02
     -6.500  0.4834E+01  0.1059E+02
     -6.490  0.4768E+01  0.1063E+02
     -6.480  0.4690E+01  0.1068E+02
     -6.470  0.4600E+01  0.1073E+02
     -6.460  0.4500E+01  0.1077E+02
     -6.450  0.4390E+01  0.1082E+02
     -6.440  0.4272E+01  0.1086E+02
     -6.430  0.4147E+01  0.1090E+02
     -6.420  0.4017E+01  0.1094E+02
     -6.410  0.3882E+01  0.1098E+02
     -6.400  0.3743E+01  0.1102E+02
     -6.390  0.3602E+01  0.1105E+02
     -6.380  0.3460E+01  0.1109E+02
     -6.370  0.3318E+01  0.1112E+02
     -6.360  0.3177E+01  0.1115E+02
     -6.350  0.3037E+01  0.1118E+02
     -6.340  0.2900E+01  0.1121E+02
     -6.330  0.2766E+01  0.1124E+02
     -6.320  0.2636E+01  0.1127E+02
     -6.310  0.2511E+01  0.1129E+02
     -6.300  0.2391E+01  0.1131E+02
     -6.290  0.2277E+01  0.1134E+02
     -6.280  0.2170E+01  0.1136E+02
     -6.270  0.2069E+01  0.1138E+02
     -6.260  0.1976E+01  0.1140E+02
     -6.250  0.1890E+01  0.1142E+02
     -6.240  0.1812E+01  0.1144E+02
     -6.230  0.1743E+01  0.1145E+02
     -6.220  0.1681E+01  0.1147E+02
     -6.210  0.1628E+01  0.1149E+02
     -6.200  0.1582E+01  0.1150E+02
     -6.190  0.1545E+01  0.1152E+02
     -6.180  0.1516E+01  0.1153E+02
     -6.170  0.1494E+01  0.1155E+02
     -6.160  0.1480E+01  0.1156E+02
     -6.150  0.1472E+01  0.1158E+02
     -6.140  0.1471E+01  0.1159E+02
     -6.130  0.1476E+01  0.1161E+02
     -6.120  0.1486E+01  0.1162E+02
     -6.110  0.1501E+01  0.1164E+02
     -6.100  0.1519E+01  0.1165E+02
     -6.090  0.1541E+01  0.1167E+02
     -6.080  0.1566E+01  0.1168E+02
     -6.070  0.1593E+01  0.1170E+02
     -6.060  0.1620E+01  0.1172E+02
     -6.050  0.1649E+01  0.1173E+02
     -6.040  0.1677E+01  0.1175E+02
     -6.030  0.1705E+01  0.1177E+02
     -6.020  0.1731E+01  0.1178E+02
     -6.010  0.1756E+01  0.1180E+02
     -6.000  0.1778E+01  0.1182E+02
     -5.990  0.1797E+01  0.1184E+02
     -5.980  0.1813E+01  0.1185E+02
     -5.970  0.1826E+01  0.1187E+02
     -5.960  0.1834E+01  0.1189E+02
     -5.950  0.1839E+01  0.1191E+02
     -5.940  0.1839E+01  0.1193E+02
     -5.930  0.1836E+01  0.1195E+02
     -5.920  0.1828E+01  0.1196E+02
     -5.910  0.1815E+01  0.1198E+02
     -5.900  0.1798E+01  0.1200E+02
     -5.890  0.1778E+01  0.1202E+02
     -5.880  0.1753E+01  0.1204E+02
     -5.870  0.1725E+01  0.1205E+02
     -5.860  0.1693E+01  0.1207E+02
     -5.850  0.1658E+01  0.1209E+02
     -5.840  0.1620E+01  0.1210E+02
     -5.830  0.1580E+01  0.1212E+02
     -5.820  0.1538E+01  0.1213E+02
     -5.810  0.1495E+01  0.1215E+02
     -5.800  0.1451E+01  0.1216E+02
     -5.790  0.1406E+01  0.1218E+02
     -5.780  0.1362E+01  0.1219E+02
     -5.770  0.1318E+01  0.1220E+02
     -5.760  0.1277E+01  0.1222E+02
     -5.750  0.1237E+01  0.1223E+02
     -5.740  0.1200E+01  0.1224E+02
     -5.730  0.1167E+01  0.1225E+02
     -5.720  0.1137E+01  0.1226E+02
     -5.710  0.1113E+01  0.1228E+02
     -5.700  0.1094E+01  0.1229E+02
     -5.690  0.1082E+01  0.1230E+02
     -5.680  0.1076E+01  0.1231E+02
     -5.670  0.1078E+01  0.1232E+02
     -5.660  0.1088E+01  0.1233E+02
     -5.650  0.1106E+01  0.1234E+02
     -5.640  0.1134E+01  0.1235E+02
     -5.630  0.1170E+01  0.1236E+02
     -5.620  0.1216E+01  0.1238E+02
     -5.610  0.1272E+01  0.1239E+02
     -5.600  0.1338E+01  0.1240E+02
     -5.590  0.1414E+01  0.1242E+02
     -5.580  0.1500E+01  0.1243E+02
     -5.570  0.1596E+01  0.1245E+02
     -5.560  0.1701E+01  0.1246E+02
     -5.550  0.1815E+01  0.1248E+02
     -5.540  0.1937E+01  0.1250E+02
     -5.530  0.2068E+01  0.1252E+02
     -5.520  0.2206E+01  0.1254E+02
     -5.510  0.2351E+01  0.1257E+02
     -5.500  0.2501E+01  0.1259E+02
     -5.490  0.2656E+01  0.1262E+02
     -5.480  0.2814E+01  0.1265E+02
     -5.470  0.2975E+01  0.1268E+02
     -5.460  0.3138E+01  0.1271E+02
     -5.450  0.3301E+01  0.1274E+02
     -5.440  0.3464E+01  0.1278E+02
     -5.430  0.3624E+01  0.1281E+02
     -5.420  0.3782E+01  0.1285E+02
     -5.410  0.3935E+01  0.1289E+02
     -5.400  0.4083E+01  0.1293E+02
     -5.390  0.4224E+01  0.1297E+02
     -5.380  0.4358E+01  0.1302E+02
     -5.370  0.4483E+01  0.1306E+02
     -5.360  0.4599E+01  0.1311E+02
     -5.350  0.4705E+01  0.1315E+02
     -5.340  0.4800E+01  0.1320E+02
     -5.330  0.4883E+01  0.1325E+02
     -5.320  0.4954E+01  0.1330E+02
     -5.310  0.5013E+01  0.1335E+02
     -5.300  0.5058E+01  0.1340E+02
     -5.290  0.5090E+01  0.1345E+02
     -5.280  0.5109E+01  0.1350E+02
     -5.270  0.5114E+01  0.1356E+02
     -5.260  0.5106E+01  0.1361E+02
     -5.250  0.5084E+01  0.1366E+02
     -5.240  0.5049E+01  0.1371E+02
     -5.230  0.5001E+01  0.1376E+02
     -5.220  0.4941E+01  0.1381E+02
     -5.210  0.4869E+01  0.1386E+02
     -5.200  0.4785E+01  0.1390E+02
     -5.190  0.4691E+01  0.1395E+02
     -5.180  0.4587E+01  0.1400E+02
     -5.170  0.4474E+01  0.1404E+02
     -5.160  0.4353E+01  0.1408E+02
     -5.150  0.4225E+01  0.1413E+02
     -5.140  0.4090E+01  0.1417E+02
     -5.130  0.3951E+01  0.1421E+02
     -5.120  0.3807E+01  0.1425E+02
     -5.110  0.3660E+01  0.1428E+02
     -5.100  0.3512E+01  0.1432E+02
     -5.090  0.3362E+01  0.1435E+02
     -5.080  0.3214E+01  0.1438E+02
     -5.070  0.3066E+01  0.1441E+02
     -5.060  0.2921E+01  0.1444E+02
     -5.050  0.2780E+01  0.1447E+02
     -5.040  0.2644E+01  0.1450E+02
     -5.030  0.2513E+01  0.1452E+02
     -5.020  0.2388E+01  0.1455E+02
     -5.010  0.2271E+01  0.1457E+02
     -5.000  0.2162E+01  0.1459E+02
     -4.990  0.2061E+01  0.1461E+02
     -4.980  0.1969E+01  0.1463E+02
     -4.970  0.1887E+01  0.1465E+02
     -4.960  0.1815E+01  0.1467E+02
     -4.950  0.1753E+01  0.1469E+02
     -4.940  0.1701E+01  0.1470E+02
     -4.930  0.1660E+01  0.1472E+02
     -4.920  0.1629E+01  0.1473E+02
     -4.910  0.1607E+01  0.1475E+02
     -4.900  0.1596E+01  0.1477E+02
     -4.890  0.1594E+01  0.1478E+02
     -4.880  0.1600E+01  0.1480E+02
     -4.870  0.1615E+01  0.1482E+02
     -4.860  0.1637E+01  0.1483E+02
     -4.850  0.1666E+01  0.1485E+02
     -4.840  0.1701E+01  0.1487E+02
     -4.830  0.1741E+01  0.1488E+02
     -4.820  0.1785E+01  0.1490E+02
     -4.810  0.1832E+01  0.1492E+02
     -4.800  0.1881E+01  0.1494E+02
     -4.790  0.1932E+01  0.1496E+02
     -4.780  0.1982E+01  0.1498E+02
     -4.770  0.2033E+01  0.1500E+02
     -4.760  0.2081E+01  0.1502E+02
     -4.750  0.2128E+01  0.1504E+02
     -4.740  0.2172E+01  0.1506E+02
     -4.730  0.2212E+01  0.1508E+02
     -4.720  0.2249E+01  0.1511E+02
     -4.710  0.2281E+01  0.1513E+02
     -4.700  0.2309E+01  0.1515E+02
     -4.690  0.2333E+01  0.1517E+02
     -4.680  0.2351E+01  0.1520E+02
     -4.670  0.2365E+01  0.1522E+02
     -4.660  0.2375E+01  0.1525E+02
     -4.650  0.2381E+01  0.1527E+02
     -4.640  0.2383E+01  0.1529E+02
     -4.630  0.2383E+01  0.1532E+02
     -4.620  0.2380E+01  0.1534E+02
     -4.610  0.2375E+01  0.1536E+02
     -4.600  0.2368E+01  0.1539E+02
     -4.590  0.2361E+01  0.1541E+02
     -4.580  0.2354E+01  0.1544E+02
     -4.570  0.2348E+01  0.1546E+02
     -4.560  0.2343E+01  0.1548E+02
     -4.550  0.2340E+01  0.1551E+02
     -4.540  0.2339E+01  0.1553E+02
     -4.530  0.2340E+01  0.1555E+02
     -4.520  0.2345E+01  0.1558E+02
     -4.510  0.2353E+01  0.1560E+02
     -4.500  0.2364E+01  0.1562E+02
     -4.490  0.2378E+01  0.1565E+02
     -4.480  0.2396E+01  0.1567E+02
     -4.470  0.2418E+01  0.1570E+02
     -4.460  0.2442E+01  0.1572E+02
     -4.450  0.2469E+01  0.1574E+02
     -4.440  0.2498E+01  0.1577E+02
     -4.430  0.2530E+01  0.1579E+02
     -4.420  0.2563E+01  0.1582E+02
     -4.410  0.2597E+01  0.1585E+02
     -4.400  0.2631E+01  0.1587E+02
     -4.390  0.2666E+01  0.1590E+02
     -4.380  0.2699E+01  0.1593E+02
     -4.370  0.2732E+01  0.1595E+02
     -4.360  0.2763E+01  0.1598E+02
     -4.350  0.2792E+01  0.1601E+02
     -4.340  0.2819E+01  0.1604E+02
     -4.330  0.2842E+01  0.1607E+02
     -4.320  0.2862E+01  0.1609E+02
     -4.310  0.2879E+01  0.1612E+02
     -4.300  0.2892E+01  0.1615E+02
     -4.290  0.2902E+01  0.1618E+02
     -4.280  0.2908E+01  0.1621E+02
     -4.270  0.2910E+01  0.1624E+02
     -4.260  0.2908E+01  0.1627E+02
     -4.250  0.2904E+01  0.1630E+02
     -4.240  0.2896E+01  0.1633E+02
     -4.230  0.2886E+01  0.1635E+02
     -4.220  0.2873E+01  0.1638E+02
     -4.210  0.2859E+01  0.1641E+02
     -4.200  0.2843E+01  0.1644E+02
     -4.190  0.2827E+01  0.1647E+02
     -4.180  0.2810E+01  0.1650E+02
     -4.170  0.2793E+01  0.1652E+02
     -4.160  0.2777E+01  0.1655E+02
     -4.150  0.2762E+01  0.1658E+02
     -4.140  0.2749E+01  0.1661E+02
     -4.130  0.2737E+01  0.1664E+02
     -4.120  0.2727E+01  0.1666E+02
     -4.110  0.2720E+01  0.1669E+02
     -4.100  0.2714E+01  0.1672E+02
     -4.090  0.2711E+01  0.1674E+02
     -4.080  0.2710E+01  0.1677E+02
     -4.070  0.2711E+01  0.1680E+02
     -4.060  0.2713E+01  0.1683E+02
     -4.050  0.2716E+01  0.1685E+02
     -4.040  0.2719E+01  0.1688E+02
     -4.030  0.2723E+01  0.1691E+02
     -4.020  0.2726E+01  0.1693E+02
     -4.010  0.2728E+01  0.1696E+02
     -4.000  0.2727E+01  0.1699E+02
     -3.990  0.2724E+01  0.1702E+02
     -3.980  0.2718E+01  0.1704E+02
     -3.970  0.2707E+01  0.1707E+02
     -3.960  0.2692E+01  0.1710E+02
     -3.950  0.2673E+01  0.1712E+02
     -3.940  0.2648E+01  0.1715E+02
     -3.930  0.2618E+01  0.1718E+02
     -3.920  0.2582E+01  0.1720E+02
     -3.910  0.2540E+01  0.1723E+02
     -3.900  0.2493E+01  0.1725E+02
     -3.890  0.2441E+01  0.1728E+02
     -3.880  0.2385E+01  0.1730E+02
     -3.870  0.2324E+01  0.1732E+02
     -3.860  0.2259E+01  0.1735E+02
     -3.850  0.2192E+01  0.1737E+02
     -3.840  0.2122E+01  0.1739E+02
     -3.830  0.2052E+01  0.1741E+02
     -3.820  0.1981E+01  0.1743E+02
     -3.810  0.1910E+01  0.1745E+02
     -3.800  0.1841E+01  0.1747E+02
     -3.790  0.1774E+01  0.1749E+02
     -3.780  0.1709E+01  0.1750E+02
     -3.770  0.1649E+01  0.1752E+02
     -3.760  0.1592E+01  0.1753E+02
     -3.750  0.1540E+01  0.1755E+02