    3    3    1    1
  0.7897505E+02  0.3190316E-09  0.3190316E-09  0.2687900E-08  0.5000000E-15
  1.000000000000000E-004
  CAR 
 unknown system                          
     18     10     14
 
  0.0000000E+00  0.0000000E+00  0.0000000E+00  0.1562500E-01
    1      -17.473137   1.000000
    2      -16.264789   1.000000
    3       -8.983065   1.000000
    4       -6.021095   1.000000
    5       -6.020833   1.000000
    6       -5.161409   1.000000
    7       -4.914030   1.000000
    8       -4.913562   1.000000
    9       -3.438942   1.000000
   10       -0.664732   0.000000
   11       -0.663950   0.000000
   12       -0.442645   0.000000
   13       -0.441949   0.000000
   14        1.957898   0.000000
 
  0.1250000E+00  0.0000000E+00  0.0000000E+00  0.9375000E-01
    1      -17.259067   1.000000
    2      -16.162317   1.000000
    3       -8.738087   1.000000
    4       -6.485452   1.000000
    5       -5.968465   1.000000
    6       -5.786795   1.000000
    7       -5.250083   1.000000
    8       -4.482529   1.000000
    9       -3.577785   1.000000
   10       -0.947462   0.000000
   11       -0.880661   0.000000
   12       -0.679185   0.000000
   13       -0.310602   0.000000
   14        2.322207   0.000000
 
  0.2500000E+00  0.0000000E+00  0.0000000E+00  0.9375000E-01
    1      -16.690514   1.000000
    2      -15.893408   1.000000
    3       -8.372313   1.000000
    4       -7.213689   1.000000
    5       -6.950047   1.000000
    6       -5.886762   1.000000
    7       -5.201025   1.000000
    8       -4.734481   1.000000
    9       -4.146348   1.000000
   10       -1.271692   0.000000
   11       -1.096568   0.000000
   12       -0.553407   0.000000
   13        0.304503   0.000000
   14        3.148986   0.000000
 
  0.3750000E+00  0.0000000E+00  0.0000000E+00  0.9375000E-01
    1      -16.015611   1.000000
    2      -15.584852   1.000000
    3       -8.811427   1.000000
    4       -7.818901   1.000000
    5       -7.344925   1.000000
    6       -6.385398   1.000000
    7       -5.143406   1.000000
    8       -4.611196   1.000000
    9       -4.340485   1.000000
   10       -1.279075   0.000000
   11       -0.999448   0.000000
   12        0.165374   0.000000
   13        0.696981   0.000000
   14        3.721654   0.000000
 
  0.5000000E+00  0.0000000E+00  0.0000000E+00  0.4687500E-01
    1      -15.687318   1.000000
    2      -15.441490   1.000000
    3       -9.144500   1.000000
    4       -8.184946   1.000000
    5       -7.470430   1.000000
    6       -6.566023   1.000000
    7       -5.282007   1.000000
    8       -4.384044   1.000000
    9       -4.058882   1.000000
   10       -1.257404   0.000000
   11       -0.742881   0.000000
   12        0.465195   0.000000
   13        0.812860   0.000000
   14        2.767206   0.000000
 
  0.1250000E+00  0.1250000E+00  0.0000000E+00  0.9375000E-01
    1      -16.866396   1.000000
    2      -15.975216   1.000000
    3       -8.390584   1.000000
    4       -7.050858   1.000000
    5       -6.531206   1.000000
    6       -6.064470   1.000000
    7       -5.448412   1.000000
    8       -4.347777   1.000000
    9       -3.950490   1.000000
   10       -1.346802   0.000000
   11       -0.969249   0.000000
   12       -0.957070   0.000000
   13        0.283599   0.000000
   14        2.916464   0.000000
 
  0.2500000E+00  0.1250000E+00  0.0000000E+00  0.1875000E+00
    1      -16.233018   1.000000
    2      -15.676576   1.000000
    3       -8.454851   1.000000
    4       -7.477268   1.000000
    5       -7.213955   1.000000
    6       -6.569790   1.000000
    7       -5.349327   1.000000
    8       -4.710641   1.000000
    9       -4.234209   1.000000
   10       -1.430462   0.000000
   11       -0.983716   0.000000
   12       -0.486900   0.000000
   13        0.789051   0.000000
   14        3.907291   0.000000
 
  0.3750000E+00  0.1250000E+00  0.0000000E+00  0.1875000E+00
    1      -15.702622   1.000000
    2      -15.432635   1.000000
    3       -8.857033   1.000000
    4       -8.240911   1.000000
    5       -7.342995   1.000000
    6       -6.587430   1.000000
    7       -5.334225   1.000000
    8       -5.192086   1.000000
    9       -3.907518   1.000000
   10       -1.238520   0.000000
   11       -0.728401   0.000000
   12        0.136828   0.000000
   13        0.822887   0.000000
   14        3.292239   0.000000
 
  0.2500000E+00  0.2500000E+00  0.0000000E+00  0.9375000E-01
    1      -15.717582   1.000000
    2      -15.423696   1.000000
    3       -8.495982   1.000000
    4       -8.290708   1.000000
    5       -7.016355   1.000000
    6       -6.635631   1.000000
    7       -6.316524   1.000000
    8       -5.058928   1.000000
    9       -3.937202   1.000000
   10       -1.289366   0.000000
   11       -0.677563   0.000000
   12       -0.360907   0.000000
   13        1.107307   0.000000
   14        4.123426   0.000000
 
  0.3750000E+00  0.2500000E+00  0.0000000E+00  0.9375000E-01
    1      -15.482626   1.000000
    2      -15.304648   1.000000
    3       -8.675504   1.000000
    4       -8.326731   1.000000
    5       -7.299857   1.000000
    6       -6.637710   1.000000
    7       -6.409604   1.000000
    8       -5.444417   1.000000
    9       -3.569741   1.000000
   10       -1.615631   0.000000
   11       -0.299726   0.000000
   12       -0.128142   0.000000
   13        1.250538   0.000000
   14        3.537242   0.000000
