unknown system                          
   1.00000000000000     
     3.190316    0.000000    0.000000
    -1.595158    2.762894    0.000000
     0.000000    0.000000   26.879004
   Mo   S 
     1     2
Direct
  0.333333  0.666667  0.138389
  0.666667  0.333333  0.080169
  0.666666  0.333333  0.196608
 
   12   12  108
 0.21995E-02 0.11003E-01 0.62092     0.53357E-03 0.96462     0.13147E-01 0.45031E-02 0.25332E-02 0.89523E-02 0.38196E-03
 0.14822E-01 0.62411E-02 0.32840E-02 0.14839E-02 0.13808E-02 0.23871E-02 0.16118E-01 0.70611E-02 0.60316E-01 0.37628E-02
 0.17829     0.28903E-02 0.20469E-02 0.31553E-02 0.62793E-03 0.27212E-02 0.22224E-02 0.15720E-02 0.22196E-01 0.12337E-01
 0.71831E-02 0.11851E-01 0.14489E-01 0.91784E-02 0.44595E-01 0.87294E-02 0.10356E-02 0.14388E-03 0.10062E-02 0.33959E-02
 0.38112E-02 0.18375E-02 0.94425E-02 0.30057E-02 0.53040E-01 0.10619     0.35071E-01 0.12546E-02 0.18470E-01 0.73314E-02
 0.15189E-02 0.57645E-03 0.30937E-01 0.12306E-01 0.13740E-01 0.68107E-01 0.10412     0.68688E-02 0.87047E-01 0.29014E-01
 0.11788E-02 0.91893E-03 0.95482E-04 0.90929E-04 0.32853E-03 0.15902E-01 0.11437E-01 0.10513     0.73526E-02 0.81155E-02
 0.41171E-02 0.87935E-02 0.29630E-01 0.23595E-02 0.69446E-03 0.70203E-04 0.93607E-03 0.20256E-01 0.53988E-01 0.74394E-01
 0.59614E-01 0.36394E-02 0.43417E-01 0.14684E-01 0.84850E-02 0.71653     0.49971E-03 0.13859E-03 0.12196E-02 0.14902E-02
 0.38455E-01 0.22024E-02 0.10878E-01 0.49649E-02 0.94192E-02 0.68440     0.87174E-02 0.18168     0.89961     0.23105E-03
 0.37731E-02 0.45227E-03 0.45960E-03 0.72587E-03 0.36623     0.15493E-02 0.91547     0.90600     0.90793E-02 0.57691E-03
 0.66651     0.61005E-02 0.10261E-02 0.10169E-03 0.20644E-03 0.78211E-04 0.51599E-02 0.64541E-02 0.97731     0.12474E-02
 0.14918E-02 0.78965E-01 0.65670E-02 0.35137E-03 0.60111E-02 0.62191E-03 0.29104E-03 0.22228E-03 0.43310E-02 0.23372E-03
 0.15272E-01 0.66484     0.28273E-02 0.17083E-02 0.10758E-02 0.11859E-02 0.37555E-02 0.12816E-02 0.70509E-02 0.36532E-03
 0.24292E-01 0.42516E-03 0.56235E-03 0.21901E-02 0.35233E-02 0.78245E-02 0.26001E-01 0.36384E-02 0.18303     0.66571    
 0.27873E-01 0.55547E-01 0.26513E-01 0.26224E-02 0.15584     0.64760E-02 0.47842E-02 0.31507E-02 0.53325E-02 0.66637E-01
 0.62686E-01 0.54421E-01 0.84638     0.35911E-01 0.84492     0.59397E-01 0.11011E-01 0.85862E-02 0.24765E-02 0.35832    
 0.58755E-02 0.95912E-02 0.79411E-01 0.23687     0.91090E-01 0.12221     0.15226     0.75984E-01 0.11366     0.50893    
 0.20531E-01 0.67920E-03 0.55751E-01 0.12151E-01 0.89110E-01 0.20118E-01 0.10355     0.59392E-01 0.23174     0.76627    
 0.58409     0.10527E-01 0.99880     0.71087E-02 0.89354E-01 0.26500E-02 0.50453E-01 0.34009     0.14811     0.26078    
 0.97053     0.14379     0.58326     0.10889     0.95329E-02 0.23078E-01 0.43718E-03 0.12600E-02 0.20596E-02 0.64352    
 0.86516E-01 0.77329     0.15448     0.70657E-01 0.61366E-01 0.15672     0.98609     0.97101E-02 0.14280     0.25494E-03
 0.96597     0.23959E-01 0.10461     0.88090     0.49187     0.54602E-01 0.41409     0.10871     0.42289E-01 0.64695E-01
 0.14969E-02 0.70920E-02 0.86223E-03 0.26801E-02 0.17025     0.15305E-01 0.63618E-01 0.85096E-01 0.80206E-01 0.60900    
 0.33679E-01 0.80173E-01 0.80625E-02 0.43045E-03 0.15062E-02 0.48112E-01 0.13388E-02 0.16883E-01 0.25165     0.12464E-01
 0.32061     0.34641     0.99070     0.27312E-02 0.81857E-02 0.66875E-02 0.67275E-02 0.26709E-03 0.11565E-01 0.37664E-03
 0.92701E-01 0.46887     0.13622     0.80317E-02 0.48086E-02 0.20795E-01 0.46093E-02 0.11660E-02 0.46585E-02 0.85342E-01
 0.10711E-02 0.49247E-02 0.30941E-02 0.97024E-03 0.13369E-01 0.48880E-01 0.44430E-02 0.30443E-02 0.28499E-02 0.50345E-01
 0.10237E-01 0.66600E-02 0.83944     0.22849E-02 0.73478E-01 0.96256E-02 0.15590E-02 0.38509E-02 0.40023E-02 0.78715E-02
 0.26298E-01 0.16701E-01 0.21970     0.68947     0.13408     0.79856     0.79546E-01 0.12528E-01 0.45758E-01 0.73684E-02
 0.63962E-02 0.52488E-02 0.15471E-01 0.96453     0.17714     0.22224     0.77803     0.18181     0.62925     0.85792    
 0.43137E-01 0.20153E-01 0.78520E-02 0.17948E-01 0.13337E-01 0.40918E-01 0.22821     0.97379     0.32746     0.99424    
 0.37997     0.27451     0.26162     0.48946     0.86856     0.26130E-02 0.62342E-01 0.33847E-01 0.98386     0.12969    
 0.97999     0.27374     0.96349     0.63624     0.86601     0.59348E-01 0.41704     0.15193E-01 0.14451E-01 0.93545E-02
 0.11377     0.93331     0.37836     0.95142     0.70659     0.38522     0.88094     0.27666     0.56547E-01 0.85154    
 0.20146E-02 0.38922E-01 0.10841E-01 0.78373     0.28989     0.63008     0.39519     0.94293     0.27282     0.99905    
 0.60208     0.47527E-01 0.20857     0.13178E-02 0.11093     0.80059E-01 0.26714     0.79089     0.90202     0.26020    
 0.90778     0.32979     0.15795     0.14485     0.87225E-02 0.70943     0.38696E-02 0.14129E-01 0.24173     0.77565E-01
 0.22029     0.92084     0.28999     0.53096     0.99679E-01 0.96470E-01 0.21381E-01 0.22633E-02 0.47612E-02 0.31572E-01
 0.63121E-02 0.60987     0.25058     0.67044E-01 0.36957     0.37186     0.18796     0.97256E-02 0.11864E-01 0.10593E-01
 0.13962E-01 0.15313E-02 0.20634     0.17973E-02 0.38098E-01 0.29004     0.16008     0.35994E-01 0.12154E-01 0.15029E-01
 0.71345E-02 0.42055E-02 0.15730E-01 0.72328     0.54663E-02 0.99106     0.55385E-02 0.32982E-02 0.20371E-01 0.44375E-01
 0.61849E-02 0.52816E-02 0.65678E-02 0.19292     0.33874E-01 0.36814E-01 0.37069     0.11770E-01 0.40679E-01 0.25415    
 0.36389E-02 0.57378E-02 0.57388E-02 0.10939E-01 0.35607E-01 0.50599E-01 0.29702     0.56719     0.36258     0.82355    
 0.17677     0.40519E-01 0.46661E-01 0.10667E-01 0.98611E-02 0.88662E-02 0.31706E-01 0.42355     0.36529     0.51944    
 0.78758     0.52474     0.71129     0.81438     0.11349     0.35994E-01 0.18380E-01 0.18831E-01 0.25116E-01 0.11391    
 0.45430     0.84657     0.70441     0.94577     0.72045     0.60203     0.46892     0.34136     0.34840     0.78084E-02
 0.40454E-01 0.71668E-01 0.75088     0.46637     0.95029     0.73152     0.93712     0.83091     0.81525     0.21823    
 0.38993     0.29414E-01 0.19010E-01 0.24220E-01 0.21239     0.79096     0.72352     0.93354     0.89386     0.78657    
 0.87861     0.53357     0.21009     0.32000     0.63748E-02 0.25578     0.35582E-01 0.63066     0.61051     0.82945    
 0.79149     0.97673     0.69015     0.88880     0.59258     0.11224     0.53482E-01 0.39093E-02 0.46517E-01 0.13610    
 0.46478     0.80046     0.88118     0.68177     0.87805     0.64140     0.35296     0.18021     0.18340E-01 0.22249E-01
 0.57836E-02 0.23607E-01 0.22701     0.24528     0.50039     0.92371     0.61667     0.66053     0.20815     0.11534    
 0.26420E-01 0.44103E-02 0.43199E-02 0.11953E-01 0.14270E-01 0.36313     0.32286     0.23303     0.51912     0.49028    
 0.15493     0.24588E-01 0.18470E-01 0.12039E-01 0.95498E-02 0.35774E-02 0.26648E-01 0.58921E-02 0.45670E-01 0.19210    
 0.21877     0.10499     0.24392E-01 0.21921E-01 0.13652E-01 0.10639E-01 0.23411E-01 0.73291E-01 0.13343E-01 0.73193E-01
 0.11670E-01 0.90248E-02 0.32044E-01 0.53119E-01 0.96930E-02 0.10168E-01 0.14317E-01 0.83013E-01 0.69868E-01 0.98738E-01
 0.24589     0.37477E-01 0.51493E-01 0.58304E-01 0.81086E-02 0.92286E-02 0.97482E-02 0.16596E-01 0.52202E-01 0.11837    
 0.41760     0.62773     0.58318     0.72510     0.32686     0.10113     0.61877E-01 0.16489E-01 0.15686E-01 0.14775E-01
 0.54474E-01 0.39103     0.55259     0.71340     0.82737     0.74444     0.77959     0.72760     0.22440     0.57734E-01
 0.35470E-01 0.24960E-01 0.43078E-01 0.23168     0.63077     0.84738     0.84424     0.91827     0.84563     0.77645    
 0.63629     0.37523     0.28595     0.17548E-01 0.47365E-01 0.13568     0.70752     0.72751     0.91990     0.87962    
 0.92989     0.88680     0.84084     0.45395     0.47211     0.56005E-01 0.28011E-01 0.54548E-01 0.35663     0.79809    
 0.84839     0.92858     0.92473     0.89227     0.89129     0.70996     0.44477     0.28092     0.16338E-01 0.97388E-01
 0.95462E-01 0.66847     0.77352     0.88552     0.89370     0.94242     0.84938     0.86062     0.67247     0.23113    
 0.70538E-01 0.11060E-01 0.67693E-01 0.24347     0.62814     0.83473     0.89051     0.84902     0.88878     0.78741    
 0.54609     0.28156     0.45244E-01 0.32490E-01 0.15147E-01 0.52604E-01 0.31629     0.46922     0.70124     0.87415    
 0.78273     0.75642     0.36084     0.18069     0.49775E-01 0.12619E-01 0.12234E-01 0.23161E-01 0.34593E-01 0.29265    
 0.43705     0.46652     0.65624     0.61181     0.20069     0.53675E-01 0.32061E-01 0.22741E-01 0.20563E-01 0.11036E-01
 0.34706E-01 0.15510E-01 0.71171E-01 0.22964     0.30575     0.22093     0.43117E-01 0.33043E-01 0.23432E-01 0.23565E-01
 0.47155E-01 0.89959E-01 0.33839E-01 0.64569E-01 0.21214E-01 0.19184E-01 0.50042E-01 0.70584E-01 0.15522E-01 0.17410E-01
 0.26343E-01 0.97224E-01 0.14061     0.21946     0.31578     0.98481E-01 0.82491E-01 0.55185E-01 0.14918E-01 0.15019E-01
 0.15011E-01 0.23942E-01 0.79127E-01 0.22325     0.54249     0.70548     0.71203     0.75067     0.48365     0.19929    
 0.89696E-01 0.23937E-01 0.23183E-01 0.22376E-01 0.89169E-01 0.44979     0.67573     0.81069     0.87243     0.84511    
 0.83515     0.75087     0.34856     0.91950E-01 0.61431E-01 0.31586E-01 0.70200E-01 0.36279     0.72781     0.87832    
 0.90579     0.93453     0.90479     0.85576     0.73059     0.45250     0.35385     0.31800E-01 0.62466E-01 0.22897    
 0.74620     0.83862     0.93445     0.93464     0.94841     0.92425     0.87785     0.62249     0.57886     0.10214    
 0.39424E-01 0.10734     0.50421     0.83907     0.90649     0.94779     0.95120     0.93790     0.92023     0.80483    
 0.61869     0.35710     0.32681E-01 0.94523E-01 0.19537     0.73423     0.85369     0.92490     0.93822     0.95174    
 0.91401     0.88617     0.74492     0.36311     0.10136     0.22085E-01 0.10122     0.36434     0.72956     0.87679    
 0.91930     0.91405     0.91841     0.86072     0.67585     0.39330     0.88649E-01 0.41368E-01 0.27890E-01 0.95850E-01
 0.42035     0.63072     0.80451     0.88823     0.85822     0.82333     0.51160     0.28015     0.84449E-01 0.24829E-01
 0.21763E-01 0.34731E-01 0.68015E-01 0.35981     0.55680     0.63115     0.74004     0.70115     0.28863     0.10421    
 0.50977E-01 0.34052E-01 0.32784E-01 0.22969E-01 0.42729E-01 0.31967E-01 0.11845     0.31818     0.40369     0.35190    
 0.71290E-01 0.48286E-01 0.35427E-01 0.43061E-01 0.82283E-01 0.12451     0.68396E-01 0.77177E-01 0.33240E-01 0.33891E-01
 0.78250E-01 0.10283     0.23048E-01 0.25061E-01 0.42620E-01 0.14248     0.24796     0.35695     0.41247     0.20051    
 0.13646     0.66353E-01 0.22407E-01 0.22481E-01 0.20018E-01 0.32984E-01 0.11729     0.33779     0.64107     0.76893    
 0.78767     0.79594     0.59690     0.30896     0.13151     0.33051E-01 0.32061E-01 0.31627E-01 0.13560     0.51849    
 0.74230     0.85072     0.88978     0.87874     0.86305     0.78208     0.44758     0.13938     0.97038E-01 0.40816E-01
 0.10831     0.46682     0.77493     0.88558     0.91363     0.92932     0.91188     0.87680     0.77647     0.52789    
 0.46006     0.50191E-01 0.91548E-01 0.32437     0.78452     0.86826     0.92692     0.93096     0.93810     0.92143    
 0.88816     0.70513     0.66134     0.17458     0.56118E-01 0.19078     0.60627     0.86481     0.91263     0.93775    
 0.93908     0.93311     0.91916     0.84718     0.71894     0.47785     0.58806E-01 0.13007     0.31731     0.79130    
 0.88168     0.92483     0.93299     0.93925     0.91975     0.89869     0.80258     0.49309     0.17103     0.42307E-01
 0.17430     0.48565     0.79709     0.89340     0.91901     0.91739     0.91897     0.88522     0.75799     0.51486    
 0.17187     0.72707E-01 0.57920E-01 0.17877     0.53987     0.72484     0.84751     0.89149     0.87774     0.85435    
 0.62400     0.40036     0.14891     0.53126E-01 0.45766E-01 0.65518E-01 0.12849     0.47745     0.64961     0.71514    
 0.78169     0.75538     0.38727     0.17624     0.83840E-01 0.57840E-01 0.63786E-01 0.50443E-01 0.67047E-01 0.58435E-01
 0.19042     0.42313     0.48713     0.45792     0.10983     0.71448E-01 0.54274E-01 0.75709E-01 0.14645     0.20683    
 0.13173     0.11486     0.50871E-01 0.54233E-01 0.11862     0.14939     0.32241E-01 0.34383E-01 0.66105E-01 0.21130    
 0.37595     0.49574     0.52701     0.32319     0.21845     0.90586E-01 0.31332E-01 0.31342E-01 0.25957E-01 0.44892E-01
 0.16042     0.42357     0.69489     0.79844     0.82141     0.81553     0.64924     0.40397     0.18317     0.44709E-01
 0.43062E-01 0.44120E-01 0.18398     0.57068     0.76522     0.85195     0.87799     0.87353     0.86175     0.78854    
 0.50530     0.19430     0.14227     0.52513E-01 0.15720     0.52422     0.78856     0.86226     0.87932     0.88497    
 0.87609     0.85878     0.79111     0.56916     0.54616     0.72797E-01 0.12953     0.40358     0.79385     0.85343    
 0.87578     0.85536     0.86309     0.87088     0.86697     0.73404     0.68913     0.27333     0.75744E-01 0.29682    
 0.64951     0.86396     0.87628     0.86291     0.83691     0.85893     0.88055     0.85329     0.76629     0.55928    
 0.98755E-01 0.17370     0.43245     0.81093     0.87497     0.88112     0.85858     0.86285     0.87796     0.88590    
 0.83025     0.57392     0.25923     0.71796E-01 0.26419     0.56283     0.82999     0.88208     0.88119     0.86832    
 0.88304     0.87532     0.79368     0.60038     0.26135     0.11707     0.99635E-01 0.27401     0.60940     0.76687    
 0.85209     0.86855     0.85808     0.85298     0.68350     0.49286     0.22291     0.95015E-01 0.79561E-01 0.10753    
 0.20694     0.57182     0.68683     0.74600     0.79161     0.77445     0.46216     0.24985     0.13032     0.94864E-01
 0.10748     0.92345E-01 0.10163     0.94886E-01 0.28238     0.50014     0.53894     0.52621     0.15240     0.10249    
 0.83285E-01 0.12149     0.22053     0.29092     0.21319     0.16800     0.73042E-01 0.81293E-01 0.16792     0.20010    
 0.44309E-01 0.47539E-01 0.96772E-01 0.28171     0.47454     0.59021     0.59969     0.42717     0.31624     0.12070    
 0.42675E-01 0.43008E-01 0.34763E-01 0.59973E-01 0.19741     0.47081     0.71885     0.81271     0.83838     0.81877    
 0.67202     0.48238     0.22538     0.58291E-01 0.56892E-01 0.59632E-01 0.22218     0.59499     0.76394     0.83558    
 0.85262     0.85282     0.84556     0.77247     0.53256     0.24236     0.19320     0.64954E-01 0.20768     0.54134    
 0.78127     0.81837     0.80305     0.78333     0.79770     0.81841     0.78576     0.56979     0.57179     0.10473    
 0.15694     0.47257     0.77893     0.81503     0.75506     0.61263     0.62129     0.75065     0.82350     0.74161    
 0.68839     0.38059     0.10069     0.38704     0.66933     0.84811     0.79766     0.62124     0.45407     0.61850    
 0.79999     0.84232     0.79515     0.59155     0.16620     0.21265     0.54405     0.81055     0.85356     0.77962    
 0.61817     0.61827     0.77855     0.85932     0.84401     0.63417     0.35822     0.12077     0.35637     0.62912    
 0.84695     0.85684     0.80111     0.74938     0.80597     0.85065     0.80809     0.66737     0.35371     0.19510    
 0.16403     0.38177     0.64928     0.79215     0.84001     0.82502     0.81499     0.83716     0.71004     0.55995    
 0.30911     0.16260     0.14155     0.17718     0.31101     0.62085     0.69037     0.75306     0.78188     0.77071    
 0.50447     0.31197     0.19166     0.15511     0.17917     0.15977     0.15290     0.15083     0.38340     0.52282    
 0.55881     0.55901     0.18844     0.13750     0.12322     0.18117     0.30601     0.38618     0.31440     0.22273    
 0.99635E-01 0.11954     0.21337     0.23755     0.59434E-01 0.64684E-01 0.13080     0.34263     0.54554     0.65646    
 0.65164     0.52127     0.40080     0.14263     0.57139E-01 0.58664E-01 0.47569E-01 0.77419E-01 0.22221     0.48923    
 0.73176     0.82694     0.85302     0.82116     0.69321     0.53724     0.24036     0.73293E-01 0.73961E-01 0.75880E-01
 0.24268     0.59390     0.76090     0.83097     0.84785     0.85185     0.84100     0.75499     0.54530     0.26495    
 0.23426     0.80413E-01 0.24194     0.53493     0.77150     0.79544     0.76162     0.72288     0.75508     0.79817    
 0.77613     0.54924     0.54752     0.14911     0.16876     0.52861     0.76197     0.79589     0.67399     0.44017    
 0.44543     0.67171     0.79861     0.75202     0.69109     0.44094     0.13279     0.41619     0.69222     0.84362    
 0.75517     0.44530     0.21852     0.44522     0.75519     0.84138     0.82168     0.58512     0.23816     0.23190    
 0.61627     0.81019     0.85186     0.72086     0.44521     0.44047     0.72265     0.85181     0.85594     0.67073    
 0.39381     0.16797     0.38366     0.67688     0.86003     0.85081     0.75614     0.67280     0.76273     0.84655    
 0.81952     0.70100     0.39409     0.24199     0.20428     0.42584     0.66445     0.81851     0.83893     0.80005    
 0.79176     0.83508     0.72441     0.59378     0.35746     0.20538     0.18318     0.22268     0.37468     0.61695    
 0.69221     0.76122     0.77001     0.76503     0.52301     0.35281     0.23902     0.19997     0.22303     0.20126    
 0.18959     0.21308     0.44729     0.50460     0.56029     0.56292     0.21234     0.17097     0.16187     0.22711    
 0.35265     0.43162     0.36999     0.24550     0.12996     0.16961     0.23692     0.25254     0.76452E-01 0.84969E-01
 0.16258     0.38505     0.58202     0.68470     0.67809     0.58814     0.43417     0.15564     0.77426E-01 0.77557E-01
 0.66669E-01 0.97784E-01 0.23238     0.46803     0.71268     0.81895     0.84489     0.80239     0.68887     0.53349    
 0.23320     0.92087E-01 0.94965E-01 0.93463E-01 0.24457     0.56863     0.74913     0.83229     0.85995     0.86629    
 0.84191     0.73398     0.53713     0.25974     0.24602     0.10102     0.24904     0.50601     0.75805     0.80529    
 0.79784     0.77473     0.79239     0.80874     0.75950     0.51815     0.49126     0.18152     0.16752     0.53748    
 0.74034     0.80591     0.72809     0.58308     0.58430     0.72812     0.80464     0.75403     0.67791     0.39707    
 0.14934     0.36060     0.69053     0.84555     0.79261     0.58381     0.40202     0.58661     0.79058     0.84440    
 0.82038     0.51756     0.23400     0.21044     0.57594     0.79032     0.86548     0.77541     0.58682     0.57789    
 0.77919     0.86050     0.84585     0.63439     0.33235     0.17738     0.32468     0.64818     0.84949     0.86033    
 0.79127     0.73148     0.79714     0.85909     0.80666     0.65328     0.35328     0.23995     0.21224     0.37108    
 0.61698     0.82070     0.84171     0.80571     0.80013     0.84038     0.70541     0.54637     0.32080     0.21189    
 0.20827     0.22888     0.33151     0.53691     0.67672     0.76098     0.75339     0.75196     0.50666     0.33552    
 0.22253     0.19495     0.22617     0.20762     0.18793     0.21825     0.40842     0.45820     0.54519     0.53500    
 0.22121     0.18649     0.16573     0.21187     0.31550     0.38489     0.32545     0.21311     0.14384     0.20113    
 0.23346     0.25123     0.95880E-01 0.10579     0.17622     0.36929     0.53653     0.63235     0.63367     0.56020    
 0.38235     0.16016     0.10334     0.98405E-01 0.10044     0.12774     0.22614     0.37962     0.60484     0.73494    
 0.76467     0.70878     0.59344     0.43671     0.21738     0.12119     0.12465     0.11966     0.23703     0.51335    
 0.68581     0.79169     0.84183     0.84932     0.80311     0.67168     0.48454     0.24634     0.23044     0.12410    
 0.23452     0.43986     0.71042     0.79807     0.81871     0.81302     0.81607     0.79846     0.70548     0.46333    
 0.39530     0.16580     0.14777     0.45842     0.67397     0.79179     0.77957     0.73689     0.73284     0.78079    
 0.79123     0.70096     0.58347     0.26709     0.12397     0.24216     0.59741     0.81171     0.81549     0.73185    
 0.65859     0.73759     0.81248     0.80666     0.73477     0.38145     0.17101     0.16335     0.41459     0.69524    
 0.84806     0.81673     0.73782     0.72693     0.82136     0.83841     0.76567     0.51137     0.26285     0.16911    
 0.26125     0.52471     0.76728     0.83780     0.81362     0.78535     0.81764     0.84020     0.71401     0.51942    
 0.30556     0.24011     0.22148     0.31280     0.49680     0.74206     0.80110     0.79337     0.78743     0.80802    
 0.59645     0.40230     0.26218     0.22007     0.23450     0.23420     0.26268     0.38720     0.58243     0.70594    
 0.70045     0.69071     0.42465     0.24157     0.16605     0.17912     0.23058     0.21723     0.17731     0.16639    
 0.27544     0.37138     0.49650     0.46576     0.21330     0.16691     0.12657     0.15853     0.25812     0.32706    
 0.25950     0.15890     0.11972     0.17825     0.21506     0.24623     0.12408     0.12424     0.15613     0.27030    
 0.39515     0.49893     0.50907     0.41496     0.25885     0.14652     0.12752     0.12678     0.16840     0.18679    
 0.21881     0.25446     0.40305     0.53453     0.56863     0.50686     0.39434     0.29359     0.21075     0.17615    
 0.17983     0.16998     0.24508     0.44039     0.52662     0.63353     0.71878     0.72414     0.65194     0.52760    
 0.39678     0.25188     0.21759     0.15613     0.22191     0.34589     0.60364     0.71558     0.74862     0.75597    
 0.75211     0.70517     0.58638     0.38417     0.27580     0.13495     0.12765     0.32376     0.51736     0.68811    
 0.74038     0.74117     0.73111     0.73958     0.69655     0.55029     0.38949     0.16919     0.10127     0.15467    
 0.40317     0.67246     0.74641     0.72950     0.70463     0.73874     0.74641     0.65554     0.52697     0.25610    
 0.12567     0.12607     0.26473     0.49224     0.72634     0.76393     0.73901     0.72518     0.77011     0.70813    
 0.57271     0.36763     0.18033     0.11450     0.18190     0.37639     0.56969     0.70590     0.74950     0.74461    
 0.75093     0.71257     0.50662     0.37072     0.21072     0.14253     0.13273     0.21391     0.35966     0.54001    
 0.64111     0.70614     0.68737     0.66734     0.39484     0.26478     0.18148     0.13198     0.13266     0.13911    
 0.17927     0.25733     0.39184     0.55008     0.58531     0.53740     0.29875     0.15767     0.12488     0.12031    
 0.13675     0.13135     0.12064     0.12338     0.17330     0.25860     0.41829     0.37167     0.20390     0.14140    
 0.10053     0.11934     0.17990     0.22310     0.17685     0.12174     0.99208E-01 0.14359     0.20341     0.25958    
 0.17830     0.14906     0.13073     0.17868     0.25958     0.35498     0.36791     0.27097     0.16514     0.12838    
 0.15509     0.18175     0.28550     0.29847     0.24053     0.18800     0.25449     0.31488     0.32942     0.29858    
 0.24234     0.21736     0.24181     0.27517     0.28008     0.25897     0.30851     0.39583     0.33025     0.37277    
 0.44017     0.43483     0.39068     0.35297     0.33583     0.30402     0.24457     0.22064     0.24030     0.28169    
 0.47904     0.52187     0.51232     0.52777     0.52988     0.49957     0.43488     0.32941     0.21130     0.14780    
 0.15018     0.24612     0.32417     0.47499     0.56687     0.57227     0.55679     0.55410     0.49301     0.36385    
 0.24037     0.14902     0.11610     0.13724     0.25727     0.41205     0.51032     0.55609     0.55571     0.56710    
 0.52356     0.39271     0.30724     0.16606     0.89312E-01 0.90483E-01 0.16558     0.28890     0.44773     0.53521    
 0.56830     0.55056     0.54511     0.42286     0.33501     0.19855     0.68604E-01 0.34431E-01 0.70252E-01 0.20168    
 0.32865     0.42287     0.52731     0.55940     0.52490     0.42876     0.29423     0.19891     0.64941E-01 0.21884E-01
 0.20009E-01 0.65892E-01 0.19512     0.31776     0.37312     0.51674     0.47262     0.41106     0.24775     0.16890    
 0.69354E-01 0.19961E-01 0.14516E-01 0.20931E-01 0.68658E-01 0.16586     0.24636     0.35226     0.44917     0.34484    
 0.22605     0.14013     0.89438E-01 0.36177E-01 0.20452E-01 0.20185E-01 0.36429E-01 0.87203E-01 0.15132     0.19848    
 0.36169     0.31140     0.22451     0.16316     0.11410     0.85589E-01 0.69823E-01 0.68265E-01 0.66779E-01 0.88368E-01
 0.11520     0.15923     0.22499     0.32722     0.27987     0.19921     0.15078     0.15820     0.16446     0.19125    
 0.20017     0.17185     0.14574     0.14759     0.21218     0.28082     0.40877     0.42620     0.28770     0.20114    
 0.21504     0.18961     0.17606     0.18474     0.19665     0.22711     0.31310     0.39007     0.39244     0.36290    
 0.44421     0.40576     0.22143     0.20759     0.21268     0.20312     0.21374     0.25954     0.34423     0.39999    
 0.31489     0.30605     0.28544     0.29481     0.41522     0.30755     0.24228     0.24407     0.26165     0.29763    
 0.33430     0.34112     0.22452     0.20634     0.22322     0.24948     0.21796     0.28889     0.32248     0.28522    
 0.27982     0.29997     0.29542     0.26324     0.19587     0.17964     0.16063     0.16936     0.21774     0.21925    
 0.24149     0.28296     0.28180     0.28476     0.25887     0.21457     0.18680     0.12533     0.77348E-01 0.77547E-01
 0.12179     0.18169     0.21650     0.24097     0.28681     0.27658     0.24970     0.20024     0.17995     0.95496E-01
 0.22370E-01 0.81794E-02 0.23461E-01 0.95516E-01 0.17455     0.20441     0.25707     0.30689     0.25451     0.20510    
 0.18073     0.94866E-01 0.12306E-01 0.71346E-03 0.60166E-03 0.12478E-01 0.94294E-01 0.19221     0.20150     0.31849    
 0.27667     0.22570     0.20759     0.12545     0.22840E-01 0.60690E-03 0.84689E-04 0.62647E-03 0.22842E-01 0.12404    
 0.20621     0.24046     0.37393     0.23662     0.22909     0.17275     0.77262E-01 0.85866E-02 0.59982E-03 0.65906E-03
 0.86293E-02 0.75210E-01 0.17966     0.21694     0.35923     0.33320     0.28346     0.23316     0.15690     0.74568E-01
 0.23491E-01 0.12663E-01 0.21801E-01 0.77005E-01 0.16158     0.22425     0.28363     0.44661     0.40265     0.26573    
 0.22454     0.18707     0.12152     0.92777E-01 0.96698E-01 0.12738     0.17681     0.20884     0.29478     0.38609    
 0.45686     0.46789     0.30101     0.23723     0.21825     0.15438     0.13537     0.15707     0.19456     0.24803    
 0.35098     0.44079     0.43473     0.41679     0.54006     0.38668     0.19617     0.17229     0.14917     0.14014    
 0.16775     0.24210     0.36627     0.44962     0.35493     0.33745     0.30129     0.35407     0.40628     0.21648    
 0.15741     0.15301     0.17024     0.22656     0.30795     0.36609     0.24677     0.24259     0.26981     0.24995    
 0.19646     0.24013     0.21758     0.17015     0.17331     0.19999     0.22699     0.24172     0.19475     0.20226    
 0.18564     0.19981     0.21821     0.16107     0.15757     0.17817     0.17053     0.17383     0.16948     0.16838    
 0.15596     0.12007     0.80574E-01 0.78678E-01 0.11465     0.15899     0.15028     0.14549     0.17534     0.17234    
 0.15157     0.14101     0.13787     0.72149E-01 0.15417E-01 0.54597E-02 0.16701E-01 0.70767E-01 0.13367     0.14749    
 0.16424     0.20795     0.16339     0.14527     0.15426     0.71044E-01 0.63161E-02 0.11686E-03 0.84418E-04 0.63545E-02
 0.71719E-01 0.15741     0.16198     0.23746     0.21874     0.17146     0.20863     0.11811     0.16091E-01 0.88474E-04
 0.75892E-04 0.88895E-04 0.16130E-01 0.11802     0.20871     0.21260     0.36355     0.21290     0.23506     0.20273    
 0.79425E-01 0.55845E-02 0.84309E-04 0.11782E-03 0.55486E-02 0.78430E-01 0.19833     0.25284     0.35008     0.38960    
 0.32756     0.26505     0.18195     0.78525E-01 0.16652E-01 0.61825E-02 0.15448E-01 0.79759E-01 0.18984     0.25849    
 0.32384     0.49423     0.45706     0.29818     0.27569     0.20290     0.11500     0.71370E-01 0.72888E-01 0.11977    
 0.20155     0.24333     0.33588     0.42039     0.39986     0.39074     0.25840     0.23433     0.21673     0.18584    
 0.18823     0.19649     0.19700     0.22145     0.30402     0.38691     0.37652     0.37862     0.47012     0.31234    
 0.22884     0.24436     0.22517     0.21332     0.22666     0.26920     0.33877     0.38765     0.30712     0.28445    
 0.26042     0.37558     0.40886     0.28239     0.27026     0.27796     0.28115     0.31139     0.34061     0.34184    
 0.22243     0.20320     0.22454     0.20578     0.23256     0.34854     0.33834     0.29748     0.31048     0.32367    
 0.31438     0.26480     0.19799     0.17242     0.15289     0.17934     0.21430     0.20804     0.27175     0.31917    
 0.30682     0.30640     0.28249     0.22700     0.19213     0.12980     0.77967E-01 0.74557E-01 0.12370     0.20368    
 0.22396     0.26092     0.30842     0.31174     0.26803     0.21855     0.18979     0.10192     0.23916E-01 0.96692E-02
 0.25717E-01 0.98537E-01 0.18584     0.23003     0.27165     0.33355     0.27206     0.22395     0.19477     0.99810E-01
 0.14945E-01 0.97518E-03 0.90796E-03 0.14883E-01 0.10212     0.18946     0.22782     0.31219     0.31729     0.22311    
 0.20844     0.12624     0.24987E-01 0.93917E-03 0.17778E-03 0.91178E-03 0.25059E-01 0.12752     0.21010     0.23885    
 0.38598     0.24323     0.20291     0.18004     0.76108E-01 0.95000E-02 0.90466E-03 0.10567E-02 0.93771E-02 0.76499E-01
 0.16695     0.24015     0.30378     0.38246     0.30152     0.20816     0.15149     0.77289E-01 0.25647E-01 0.14125E-01
 0.24572E-01 0.77012E-01 0.15813     0.20720     0.29634     0.40257     0.39609     0.26757     0.23081     0.16687    
 0.12442     0.10285     0.10237     0.12728     0.17393     0.20241     0.29129     0.36313     0.27381     0.26108    