       N       E                     dE             d eps       ncg     rms          rms(c)
DAV:   1     0.999871699849E+02    0.99987E+02   -0.43327E+03   288   0.519E+02
DAV:   2    -0.116140414073E+02   -0.11160E+03   -0.10581E+03   476   0.145E+02
DAV:   3    -0.231642970089E+02   -0.11550E+02   -0.11441E+02   382   0.600E+01
DAV:   4    -0.233649061900E+02   -0.20061E+00   -0.19983E+00   360   0.951E+00
DAV:   5    -0.233706415030E+02   -0.57353E-02   -0.57340E-02   352   0.152E+00    0.691E+00
RMM:   6    -0.222122479004E+02    0.11584E+01   -0.53857E+00   292   0.116E+01    0.263E+00
RMM:   7    -0.218285943385E+02    0.38365E+00   -0.56263E-01   290   0.329E+00    0.153E+00
RMM:   8    -0.217685185232E+02    0.60076E-01   -0.23503E-01   303   0.245E+00    0.349E-01
RMM:   9    -0.217638300875E+02    0.46884E-02   -0.82609E-03   335   0.549E-01    0.926E-02
RMM:  10    -0.217631422499E+02    0.68784E-03   -0.16368E-03   335   0.208E-01    0.432E-02
RMM:  11    -0.217631416342E+02    0.61574E-06   -0.17788E-03   312   0.186E-01    0.540E-02
RMM:  12    -0.217630572822E+02    0.84352E-04   -0.55258E-04   304   0.126E-01    0.153E-02
RMM:  13    -0.217635057961E+02   -0.44851E-03   -0.14555E-04   299   0.627E-02    0.180E-02
RMM:  14    -0.217635664334E+02   -0.60637E-04   -0.25142E-05   323   0.252E-02    0.539E-03
RMM:  15    -0.217636892541E+02   -0.12282E-03   -0.13279E-05   291   0.145E-02    0.404E-03
RMM:  16    -0.217637280960E+02   -0.38842E-04   -0.29080E-06   241   0.723E-03    0.278E-03
RMM:  17    -0.217637645338E+02   -0.36438E-04   -0.26535E-06   205   0.753E-03    0.239E-03
RMM:  18    -0.217637672737E+02   -0.27399E-05   -0.25711E-07   163   0.296E-03    0.201E-03
RMM:  19    -0.217637727536E+02   -0.54800E-05   -0.61528E-07   188   0.379E-03    0.202E-03
RMM:  20    -0.217637732086E+02   -0.45498E-06   -0.10967E-07   145   0.209E-03
   1 F= -.22354682E+02 E0= -.22354682E+02  d E =-.630185E-10
