 vasp.5.4.4.18Apr17-6-g9f103f2a35 (build Jun 30 2017 11:15:00) complex          
  
 executed on    STALLO_VASP_5.4.4 date 2019.11.08  11:45:40
 running on    4 total cores
 distrk:  each k-point on    4 cores,    1 groups
 distr:  one band on NCORES_PER_BAND=   2 cores,    2 groups


--------------------------------------------------------------------------------------------------------


 INCAR:
 POTCAR:   PAW_PBE Mo 08Apr2002                   
 POTCAR:    PAW_PBE S 17Jan2003                   
 POTCAR:   PAW_PBE Mo 08Apr2002                   
   VRHFIN =Mo: 4p5s4d                                                           
   LEXCH  = PE                                                                  
   EATOM  =   217.5180 eV,   15.9871 Ry                                         
                                                                                
   TITEL  = PAW_PBE Mo 08Apr2002                                                
   LULTRA =        F    use ultrasoft PP ?                                      
   IUNSCR =        1    unscreen: 0-lin 1-nonlin 2-no                           
   RPACOR =    2.200    partial core radius                                     
   POMASS =   95.940; ZVAL   =    6.000    mass and valenz                      
   RCORE  =    2.750    outmost cutoff radius                                   
   RWIGS  =    2.750; RWIGS  =    1.455    wigner-seitz radius (au A)           
   ENMAX  =  224.584; ENMIN  =  168.438 eV                                      
   RCLOC  =    2.111    cutoff for local pot                                    
   LCOR   =        T    correct aug charges                                     
   LPAW   =        T    paw PP                                                  
   EAUG   =  345.278                                                            
   DEXC   =    -.088                                                            
   RMAX   =    3.077    core radius for proj-oper                               
   RAUG   =    1.300    factor for augmentation sphere                          
   RDEP   =    2.815    radius for radial grids                                 
   QCUT   =   -4.063; QGAM   =    8.126    optimization parameters              
                                                                                
   Description                                                                  
     l     E      TYP  RCUT    TYP  RCUT                                        
     2   .000     23  2.500                                                     
     2   .000     23  2.500                                                     
     0   .000     23  2.600                                                     
     0  1.000     23  2.600                                                     
     1   .400     23  2.750                                                     
     1  2.000     23  2.750                                                     
     3   .000      7   .000                                                     
  local pseudopotential read in
  partial core-charges read in
  atomic valenz-charges read in
  non local Contribution for L=           2  read in
    real space projection operators read in
  non local Contribution for L=           2  read in
    real space projection operators read in
  non local Contribution for L=           0  read in
    real space projection operators read in
  non local Contribution for L=           0  read in
    real space projection operators read in
  non local Contribution for L=           1  read in
    real space projection operators read in
  non local Contribution for L=           1  read in
    real space projection operators read in
    PAW grid and wavefunctions read in
 
   number of l-projection  operators is LMAX  =           6
   number of lm-projection operators is LMMAX =          18
 
 POTCAR:    PAW_PBE S 17Jan2003                   
   VRHFIN =S : s2p4                                                             
   LEXCH  = PE                                                                  
   EATOM  =   276.8230 eV,   20.3459 Ry                                         
                                                                                
   TITEL  = PAW_PBE S 17Jan2003                                                 
   LULTRA =        F    use ultrasoft PP ?                                      
   IUNSCR =        1    unscreen: 0-lin 1-nonlin 2-no                           
   RPACOR =    1.500    partial core radius                                     
   POMASS =   32.066; ZVAL   =    6.000    mass and valenz                      
   RCORE  =    1.900    outmost cutoff radius                                   
   RWIGS  =    2.200; RWIGS  =    1.164    wigner-seitz radius (au A)           
   ENMAX  =  280.000; ENMIN  =  194.016 eV                                      
   ICORE  =        2    local potential                                         
   LCOR   =        T    correct aug charges                                     
   LPAW   =        T    paw PP                                                  
   EAUG   =  335.092                                                            
   DEXC   =     .000                                                            
   RMAX   =    2.867    core radius for proj-oper                               
   RAUG   =    1.300    factor for augmentation sphere                          
   RDEP   =    1.954    radius for radial grids                                 
   QCUT   =   -4.360; QGAM   =    8.721    optimization parameters              
                                                                                
   Description                                                                  
     l     E      TYP  RCUT    TYP  RCUT                                        
     0   .000     23  1.900                                                     
     0   .000     23  1.900                                                     
     1   .000     23  1.900                                                     
     1   .000     23  1.900                                                     
     2   .000     23  1.900                                                     
  local pseudopotential read in
  partial core-charges read in
  atomic valenz-charges read in
  non local Contribution for L=           0  read in
    real space projection operators read in
  non local Contribution for L=           0  read in
    real space projection operators read in
  non local Contribution for L=           1  read in
    real space projection operators read in
  non local Contribution for L=           1  read in
    real space projection operators read in
    PAW grid and wavefunctions read in
 
   number of l-projection  operators is LMAX  =           4
   number of lm-projection operators is LMMAX =           8
 

 ----------------------------------------------------------------------------- 
|                                                                             |
|  ADVICE TO THIS USER RUNNING 'VASP/VAMP'   (HEAR YOUR MASTER'S VOICE ...):  |
|                                                                             |
|      You have a (more or less) 'small supercell' and for smaller cells      |
|      it is recommended  to use the reciprocal-space projection scheme!      |
|      The real space optimization is not  efficient for small cells and it   |
|      is also less accurate ...                                              |
|      Therefore set LREAL=.FALSE. in the  INCAR file                         |
|                                                                             |
 ----------------------------------------------------------------------------- 

 Optimization of the real space projectors (new method)

 maximal supplied QI-value         = 13.61
 optimisation between [QCUT,QGAM] = [  8.03, 16.19] = [ 18.05, 73.41] Ry 
 Optimized for a Real-space Cutoff    1.97 Angstroem

   l    n(q)    QCUT    max X(q) W(low)/X(q) W(high)/X(q)  e(spline) 
   2      9     8.028     3.671    0.48E-05    0.25E-04    0.70E-07
   2      9     8.028    25.193    0.26E-03    0.70E-03    0.27E-06
   0     10     8.028    26.379    0.19E-04    0.25E-05    0.73E-08
   0     10     8.028    49.709    0.28E-04    0.49E-04    0.74E-07
   1      9     8.028     7.852    0.15E-04    0.15E-05    0.29E-07
   1      9     8.028    10.693    0.92E-04    0.27E-04    0.86E-07
 Optimization of the real space projectors (new method)

 maximal supplied QI-value         = 19.84
 optimisation between [QCUT,QGAM] = [  7.94, 16.07] = [ 17.64, 72.34] Ry 
 Optimized for a Real-space Cutoff    1.55 Angstroem

   l    n(q)    QCUT    max X(q) W(low)/X(q) W(high)/X(q)  e(spline) 
   0      7     7.937     5.487    0.27E-04    0.20E-04    0.12E-07
   0      7     7.937    85.627    0.10E-03    0.36E-03    0.16E-06
   1      7     7.937     3.530    0.15E-04    0.55E-04    0.56E-07
   1      7     7.937    42.714    0.49E-03    0.85E-03    0.12E-06
 PAW_PBE Mo 08Apr2002                   :
 energy of atom  1       EATOM= -217.5180
 kinetic energy error for atom=    0.0235 (will be added to EATOM!!)
  PAW_PBE S 17Jan2003                   :
 energy of atom  2       EATOM= -276.8230
 kinetic energy error for atom=    0.0359 (will be added to EATOM!!)
 
 
 POSCAR: MoS2_mp-2815_computed                   
  positions in cartesian coordinates
  velocities in cartesian coordinates
  No initial velocities read in
 exchange correlation table for  LEXCH =        8
   RHO(1)=    0.500       N(1)  =     2000
   RHO(2)=  100.500       N(2)  =     4000
 


--------------------------------------------------------------------------------------------------------


 ion  position               nearest neighbor table
   1  0.333  0.667  0.138-   3 2.42   2 2.42   2 2.42   3 2.42   3 2.42   2 2.42
   2  0.667  0.333  0.080-   1 2.42   1 2.42   1 2.42
   3  0.667  0.333  0.197-   1 2.42   1 2.42   1 2.42
 
  LATTYP: Found a hexagonal cell.
 ALAT       =     3.1903157300
 C/A-ratio  =     8.4251862746
  
  Lattice vectors:
  
 A1 = (   3.1903157300,   0.0000000000,   0.0000000000)
 A2 = (  -1.5951578650,   2.7628944683,   0.0000000000)
 A3 = (   0.0000000000,   0.0000000000,  26.8790043000)


Analysis of symmetry for initial positions (statically):
=====================================================================
 Subroutine PRICEL returns:
 Original cell was already a primitive cell.
 

 Routine SETGRP: Setting up the symmetry group for a 
 hexagonal supercell.


 Subroutine GETGRP returns: Found 12 space group operations
 (whereof  6 operations were pure point group operations)
 out of a pool of 24 trial point group operations.


The static configuration has the point symmetry C_3v.
 The point group associated with its full space group is D_3h.


Analysis of symmetry for dynamics (positions and initial velocities):
=====================================================================
 Subroutine PRICEL returns:
 Original cell was already a primitive cell.
 

 Routine SETGRP: Setting up the symmetry group for a 
 hexagonal supercell.


 Subroutine GETGRP returns: Found 12 space group operations
 (whereof  6 operations were pure point group operations)
 out of a pool of 24 trial point group operations.


The dynamic configuration has the point symmetry C_3v.
 The point group associated with its full space group is D_3h.


 Subroutine INISYM returns: Found 12 space group operations
 (whereof  6 operations are pure point group operations),
 and found     1 'primitive' translations

 
 
 KPOINTS: k-density: 4.0                          

Automatic generation of k-mesh.
Space group operators:
 irot       det(A)        alpha          n_x          n_y          n_z        tau_x        tau_y        tau_z
    1     1.000000     0.000001     1.000000     0.000000     0.000000     0.000000     0.000000     0.000000
    2     1.000000   120.000000     0.000000     0.000000    -1.000000     0.000000     0.000000     0.000000
    3     1.000000   120.000000     0.000000     0.000000     1.000000     0.000000     0.000000     0.000000
    4    -1.000000   179.999999     1.000000    -0.000000     0.000000     0.000000     0.000000     0.000000
    5    -1.000000   180.000000     0.500000    -0.866025     0.000000     0.000000     0.000000     0.000000
    6    -1.000000   180.000000    -0.500000    -0.866025     0.000000     0.000000     0.000000     0.000000
    7    -1.000000    60.000000     0.000000     0.000000    -1.000000    -0.000000     0.000000     0.276777
    8    -1.000000   180.000000     0.000000     0.000000     1.000000     0.000000     0.000000     0.276777
    9    -1.000000    60.000000     0.000000     0.000000     1.000000     0.000000     0.000001     0.276777
   10     1.000000   180.000000     0.866025    -0.500000     0.000000     0.000000     0.000000     0.276777
   11     1.000000   180.000000     0.000000     1.000000     0.000000     0.000000     0.000000     0.276777
   12     1.000000   179.999999     0.866025     0.500000     0.000000    -0.000000     0.000001     0.276777
 
 Subroutine IBZKPT returns following result:
 ===========================================
 
 Found     10 irreducible k-points:
 
 Following reciprocal coordinates:
            Coordinates               Weight
  0.000000  0.000000  0.000000      1.000000
  0.125000  0.000000  0.000000      6.000000
  0.250000  0.000000  0.000000      6.000000
  0.375000  0.000000  0.000000      6.000000
  0.500000  0.000000  0.000000      3.000000
  0.125000  0.125000  0.000000      6.000000
  0.250000  0.125000  0.000000     12.000000
  0.375000  0.125000  0.000000     12.000000
  0.250000  0.250000  0.000000      6.000000
  0.375000  0.250000  0.000000      6.000000
 
 Following cartesian coordinates:
            Coordinates               Weight
  0.000000  0.000000  0.000000      1.000000
  0.039181  0.022621  0.000000      6.000000
  0.078362  0.045242  0.000000      6.000000
  0.117543  0.067864  0.000000      6.000000
  0.156724  0.090485  0.000000      3.000000
  0.039181  0.067864  0.000000      6.000000
  0.078362  0.090485  0.000000     12.000000
  0.117543  0.113106  0.000000     12.000000
  0.078362  0.135727  0.000000      6.000000
  0.117543  0.158348  0.000000      6.000000
 


--------------------------------------------------------------------------------------------------------




 Dimension of arrays:
   k-points           NKPTS =     10   k-points in BZ     NKDIM =     10   number of bands    NBANDS=     14
   number of dos      NEDOS =   2401   number of ions     NIONS =      3
   non local maximal  LDIM  =      6   non local SUM 2l+1 LMDIM =     18
   total plane-waves  NPLWV =  15552
   max r-space proj   IRMAX =   2137   max aug-charges    IRDMAX=   4413
   dimension x,y,z NGX =    12 NGY =   12 NGZ =  108
   dimension x,y,z NGXF=    24 NGYF=   24 NGZF=  216
   support grid    NGXF=    24 NGYF=   24 NGZF=  216
   ions per type =               1   2
   NGX,Y,Z   is equivalent  to a cutoff of   6.25,  6.25,  6.68 a.u.
   NGXF,Y,Z  is equivalent  to a cutoff of  12.51, 12.51, 13.36 a.u.

 SYSTEM =  unknown system                          
 POSCAR =  MoS2_mp-2815_computed                   

 Startparameter for this run:
   NWRITE =      2    write-flag & timer
   PREC   = normal    normal or accurate (medium, high low for compatibility)
   ISTART =      0    job   : 0-new  1-cont  2-samecut
   ICHARG =      2    charge: 1-file 2-atom 10-const
   ISPIN  =      1    spin polarized calculation?
   LNONCOLLINEAR =      F non collinear calculations
   LSORBIT =      F    spin-orbit coupling
   INIWAV =      1    electr: 0-lowe 1-rand  2-diag
   LASPH  =      F    aspherical Exc in radial PAW
   METAGGA=      F    non-selfconsistent MetaGGA calc.

 Electronic Relaxation 1
   ENCUT  =  250.0 eV  18.37 Ry    4.29 a.u.   4.11  4.11 34.65*2*pi/ulx,y,z
   ENINI  =  250.0     initial cutoff
   ENAUG  =  345.3 eV  augmentation charge cutoff
   NELM   =     60;   NELMIN=  4; NELMDL= -5     # of ELM steps 
   EDIFF  = 0.1E-05   stopping-criterion for ELM
   LREAL  =      T    real-space projection
   NLSPLINE    = F    spline interpolate recip. space projectors
   LCOMPAT=      F    compatible to vasp.4.4
   GGA_COMPAT  = T    GGA compatible to vasp.4.4-vasp.4.6
   LMAXPAW     = -100 max onsite density
   LMAXMIX     =    2 max onsite mixed and CHGCAR
   VOSKOWN=      0    Vosko Wilk Nusair interpolation
   ROPT   =   -0.00050  -0.00050
 Ionic relaxation
   EDIFFG = 0.1E-04   stopping-criterion for IOM
   NSW    =      0    number of steps for IOM
   NBLOCK =      1;   KBLOCK =      1    inner block; outer block 
   IBRION =     -1    ionic relax: 0-MD 1-quasi-New 2-CG
   NFREE  =      0    steps in history (QN), initial steepest desc. (CG)
   ISIF   =      2    stress and relaxation
   IWAVPR =     10    prediction:  0-non 1-charg 2-wave 3-comb
   ISYM   =      2    0-nonsym 1-usesym 2-fastsym
   LCORR  =      T    Harris-Foulkes like correction to forces

   POTIM  = 0.5000    time-step for ionic-motion
   TEIN   =    0.0    initial temperature
   TEBEG  =    0.0;   TEEND  =   0.0 temperature during run
   SMASS  =  -3.00    Nose mass-parameter (am)
   estimated Nose-frequenzy (Omega)   =  0.10E-29 period in steps =****** mass=  -0.233E-27a.u.
   SCALEE = 1.0000    scale energy and forces
   NPACO  =    256;   APACO  = 16.0  distance and # of slots for P.C.
   PSTRESS=    0.0 pullay stress

  Mass of Ions in am
   POMASS =  95.94 32.07
  Ionic Valenz
   ZVAL   =   6.00  6.00
  Atomic Wigner-Seitz radii
   RWIGS  =  -1.00 -1.00
  virtual crystal weights 
   VCA    =   1.00  1.00
   NELECT =      18.0000    total number of electrons
   NUPDOWN=      -1.0000    fix difference up-down

 DOS related values:
   EMIN   = -12.00;   EMAX   = 12.00  energy-range for DOS
   EFERMI =   0.00
   ISMEAR =     0;   SIGMA  =   0.20  broadening in eV -4-tet -1-fermi 0-gaus

 Electronic relaxation 2 (details)
   IALGO  =     68    algorithm
   LDIAG  =      T    sub-space diagonalisation (order eigenvalues)
   LSUBROT=      F    optimize rotation matrix (better conditioning)
   TURBO    =      0    0=normal 1=particle mesh
   IRESTART =      0    0=no restart 2=restart with 2 vectors
   NREBOOT  =      0    no. of reboots
   NMIN     =      0    reboot dimension
   EREF     =   0.00    reference energy to select bands
   IMIX   =      4    mixing-type and parameters
     AMIX     =   0.40;   BMIX     =  1.00
     AMIX_MAG =   1.60;   BMIX_MAG =  1.00
     AMIN     =   0.10
     WC   =   100.;   INIMIX=   1;  MIXPRE=   1;  MAXMIX= -45

 Intra band minimization:
   WEIMIN = 0.0000     energy-eigenvalue tresh-hold
   EBREAK =  0.18E-07  absolut break condition
   DEPER  =   0.30     relativ break condition  

   TIME   =   0.40     timestep for ELM

  volume/ion in A,a.u.               =      78.98       532.95
  Fermi-wavevector in a.u.,A,eV,Ry     =   0.693365  1.310270  6.541070  0.480755
  Thomas-Fermi vector in A             =   1.775558
 
 Write flags
   LWAVE        =      F    write WAVECAR
   LDOWNSAMPLE  =      F    k-point downsampling of WAVECAR
   LCHARG       =      T    write CHGCAR
   LVTOT        =      F    write LOCPOT, total local potential
   LVHAR        =      F    write LOCPOT, Hartree potential only
   LELF         =      T    write electronic localiz. function (ELF)
   LORBIT       =     11    0 simple, 1 ext, 2 COOP (PROOUT), +10 PAW based schemes


 Dipole corrections
   LMONO  =      F    monopole corrections only (constant potential shift)
   LDIPOL =      F    correct potential (dipole corrections)
   IDIPOL =      0    1-x, 2-y, 3-z, 4-all directions 
   EPSILON=  1.0000000 bulk dielectric constant

 Exchange correlation treatment:
   GGA     =    --    GGA type
   LEXCH   =     8    internal setting for exchange type
   VOSKOWN=      0    Vosko Wilk Nusair interpolation
   LHFCALC =     F    Hartree Fock is set to
   LHFONE  =     F    Hartree Fock one center treatment
   AEXX    =    0.0000 exact exchange contribution

 Linear response parameters
   LEPSILON=     F    determine dielectric tensor
   LRPA    =     F    only Hartree local field effects (RPA)
   LNABLA  =     F    use nabla operator in PAW spheres
   LVEL    =     F    velocity operator in full k-point grid
   LINTERFAST=   F  fast interpolation
   KINTER  =     0    interpolate to denser k-point grid
   CSHIFT  =0.1000    complex shift for real part using Kramers Kronig
   OMEGAMAX=  -1.0    maximum frequency
   DEG_THRESHOLD= 0.2000000E-02 threshold for treating states as degnerate
   RTIME   =   -0.100 relaxation time in fs
  (WPLASMAI=    0.000 imaginary part of plasma frequency in eV, 0.658/RTIME)
   DFIELD  = 0.0000000 0.0000000 0.0000000 field for delta impulse in time
 
 Orbital magnetization related:
   ORBITALMAG=     F  switch on orbital magnetization
   LCHIMAG   =     F  perturbation theory with respect to B field
   DQ        =  0.001000  dq finite difference perturbation B field
   LLRAUG    =     F  two centre corrections for induced B field



--------------------------------------------------------------------------------------------------------


 Static calculation
 charge density and potential will be updated during run
 non-spin polarized calculation
 RMM-DIIS sequential band-by-band and
  variant of blocked Davidson during initial phase
 perform sub-space diagonalisation
    before iterative eigenvector-optimisation
 modified Broyden-mixing scheme, WC =      100.0
 initial mixing is a Kerker type mixing with AMIX =  0.4000 and BMIX =      1.0000
 Hartree-type preconditioning will be used
 using additional bands            5
 real space projection scheme for non local part
 use partial core corrections
 calculate Harris-corrections to forces 
   (improved forces if not selfconsistent)
 use gradient corrections 
 use of overlap-Matrix (Vanderbilt PP)
 Gauss-broadening in eV      SIGMA  =   0.20


--------------------------------------------------------------------------------------------------------


  energy-cutoff  :      250.00
  volume of cell :      236.93
      direct lattice vectors                 reciprocal lattice vectors
     3.190315730  0.000000000  0.000000000     0.313448600  0.180969634  0.000000000
    -1.595157865  2.762894468  0.000000000     0.000000000  0.361939267  0.000000000
     0.000000000  0.000000000 26.879004300     0.000000000  0.000000000  0.037203759

  length of vectors
     3.190315730  3.190315730 26.879004300     0.361939267  0.361939267  0.037203759


 
 k-points in units of 2pi/SCALE and weight: k-density: 4.0                          
   0.00000000  0.00000000  0.00000000       0.016
   0.03918108  0.02262120  0.00000000       0.094
   0.07836215  0.04524241  0.00000000       0.094
   0.11754323  0.06786361  0.00000000       0.094
   0.15672430  0.09048482  0.00000000       0.047
   0.03918108  0.06786361  0.00000000       0.094
   0.07836215  0.09048482  0.00000000       0.188
   0.11754323  0.11310602  0.00000000       0.188
   0.07836215  0.13572723  0.00000000       0.094
   0.11754323  0.15834843  0.00000000       0.094
 
 k-points in reciprocal lattice and weights: k-density: 4.0                          
   0.00000000  0.00000000  0.00000000       0.016
   0.12500000  0.00000000  0.00000000       0.094
   0.25000000  0.00000000  0.00000000       0.094
   0.37500000  0.00000000  0.00000000       0.094
   0.50000000  0.00000000  0.00000000       0.047
   0.12500000  0.12500000  0.00000000       0.094
   0.25000000  0.12500000  0.00000000       0.188
   0.37500000  0.12500000  0.00000000       0.188
   0.25000000  0.25000000  0.00000000       0.094
   0.37500000  0.25000000  0.00000000       0.094
 
 position of ions in fractional coordinates (direct lattice) 
   0.33333300  0.66666700  0.13838872
   0.66666700  0.33333300  0.08016914
   0.66666600  0.33333300  0.19660830
 
 position of ions in cartesian coordinates  (Angst):
  -0.00000160  1.84193057  3.71975108
   1.59515946  0.92096390  2.15486668
   1.59515627  0.92096390  5.28463547
 


--------------------------------------------------------------------------------------------------------


 k-point  1 :   0.0000 0.0000 0.0000  plane waves:    2067
 k-point  2 :   0.1250 0.0000 0.0000  plane waves:    2083
 k-point  3 :   0.2500 0.0000 0.0000  plane waves:    2129
 k-point  4 :   0.3750 0.0000 0.0000  plane waves:    2151
 k-point  5 :   0.5000 0.0000 0.0000  plane waves:    2156
 k-point  6 :   0.1250 0.1250 0.0000  plane waves:    2102
 k-point  7 :   0.2500 0.1250 0.0000  plane waves:    2129
 k-point  8 :   0.3750 0.1250 0.0000  plane waves:    2143
 k-point  9 :   0.2500 0.2500 0.0000  plane waves:    2136
 k-point 10 :   0.3750 0.2500 0.0000  plane waves:    2132

 maximum and minimum number of plane-waves per node :      1083     1032

 maximum number of plane-waves:      2156
 maximum index in each direction: 
   IXMAX=    4   IYMAX=    4   IZMAX=   34
   IXMIN=   -4   IYMIN=   -4   IZMIN=  -34


 real space projection operators:
  total allocation   :        419.20 KBytes
  max/ min on nodes  :        209.88        209.33


 parallel 3D FFT for wavefunctions:
    minimum data exchange during FFTs selected (reduces bandwidth)
 parallel 3D FFT for charge:
    minimum data exchange during FFTs selected (reduces bandwidth)


 total amount of memory used by VASP MPI-rank0    34979. kBytes
=======================================================================

   base      :      30000. kBytes
   nonlr-proj:        367. kBytes
   fftplans  :       1284. kBytes
   grid      :       2065. kBytes
   one-center:         31. kBytes
   wavefun   :       1232. kBytes
 
     INWAV:  cpu time    0.0000: real time    0.0003
 Broyden mixing: mesh for mixing (old mesh)
   NGX =  9   NGY =  9   NGZ = 69
  (NGX  = 24   NGY  = 24   NGZ  =216)
  gives a total of   5589 points

 initial charge density was supplied:
 charge density of overlapping atoms calculated
 number of electron      18.0000000 magnetization 
 keeping initial charge density in first step


--------------------------------------------------------------------------------------------------------


 Maximum index for non-local projection operator         1037
 Maximum index for augmentation-charges         1041 (set IRDMAX)


--------------------------------------------------------------------------------------------------------


 First call to EWALD:  gamma=   0.286
 Maximum number of real-space cells 6x 6x 1
 Maximum number of reciprocal cells 2x 2x10

    FEWALD:  cpu time    0.0020: real time    0.0014


--------------------------------------- Iteration      1(   1)  ---------------------------------------


    POTLOK:  cpu time    0.0180: real time    0.0706
    SETDIJ:  cpu time    0.0030: real time    0.0024
     EDDAV:  cpu time    0.0980: real time    0.1018
       DOS:  cpu time    0.0020: real time    0.0019
    --------------------------------------------
      LOOP:  cpu time    0.1210: real time    0.1766

 eigenvalue-minimisations  :   288
 total energy-change (2. order) : 0.9998717E+02  (-0.4332703E+03)
 number of electron      18.0000000 magnetization 
 augmentation part       18.0000000 magnetization 

 Free energy of the ion-electron system (eV)
  ---------------------------------------------------
  alpha Z        PSCENC =        12.51390764
  Ewald energy   TEWEN  =      4286.25630342
  -Hartree energ DENC   =     -4967.71356794
  -exchange      EXHF   =         0.00000000
  -V(xc)+E(xc)   XCENC  =       -36.31055464
  PAW double counting   =       406.88651198     -329.34073203
  entropy T*S    EENTRO =        -0.04265735
  eigenvalues    EBANDS =       -43.33061685
  atomic energy  EATOM  =       771.06857575
  Solvation  Ediel_sol  =         0.00000000
  ---------------------------------------------------
  free energy    TOTEN  =        99.98716998 eV

  energy without entropy =      100.02982733  energy(sigma->0) =      100.00849866


--------------------------------------------------------------------------------------------------------




--------------------------------------- Iteration      1(   2)  ---------------------------------------


     EDDAV:  cpu time    0.1450: real time    0.1460
       DOS:  cpu time    0.0010: real time    0.0016
    --------------------------------------------
      LOOP:  cpu time    0.1460: real time    0.1476

 eigenvalue-minimisations  :   476
 total energy-change (2. order) :-0.1116012E+03  (-0.1058060E+03)
 number of electron      18.0000000 magnetization 
 augmentation part       18.0000000 magnetization 

 Free energy of the ion-electron system (eV)
  ---------------------------------------------------
  alpha Z        PSCENC =        12.51390764
  Ewald energy   TEWEN  =      4286.25630342
  -Hartree energ DENC   =     -4967.71356794
  -exchange      EXHF   =         0.00000000
  -V(xc)+E(xc)   XCENC  =       -36.31055464
  PAW double counting   =       406.88651198     -329.34073203
  entropy T*S    EENTRO =        -0.00000000
  eigenvalues    EBANDS =      -154.97448559
  atomic energy  EATOM  =       771.06857575
  Solvation  Ediel_sol  =         0.00000000
  ---------------------------------------------------
  free energy    TOTEN  =       -11.61404141 eV

  energy without entropy =      -11.61404141  energy(sigma->0) =      -11.61404141


--------------------------------------------------------------------------------------------------------




--------------------------------------- Iteration      1(   3)  ---------------------------------------


     EDDAV:  cpu time    0.1200: real time    0.1199
       DOS:  cpu time    0.0020: real time    0.0017
    --------------------------------------------
      LOOP:  cpu time    0.1220: real time    0.1216

 eigenvalue-minimisations  :   382
 total energy-change (2. order) :-0.1155026E+02  (-0.1144108E+02)
 number of electron      18.0000000 magnetization 
 augmentation part       18.0000000 magnetization 

 Free energy of the ion-electron system (eV)
  ---------------------------------------------------
  alpha Z        PSCENC =        12.51390764
  Ewald energy   TEWEN  =      4286.25630342
  -Hartree energ DENC   =     -4967.71356794
  -exchange      EXHF   =         0.00000000
  -V(xc)+E(xc)   XCENC  =       -36.31055464
  PAW double counting   =       406.88651198     -329.34073203
  entropy T*S    EENTRO =        -0.00000000
  eigenvalues    EBANDS =      -166.52474119
  atomic energy  EATOM  =       771.06857575
  Solvation  Ediel_sol  =         0.00000000
  ---------------------------------------------------
  free energy    TOTEN  =       -23.16429701 eV

  energy without entropy =      -23.16429701  energy(sigma->0) =      -23.16429701


--------------------------------------------------------------------------------------------------------




--------------------------------------- Iteration      1(   4)  ---------------------------------------


     EDDAV:  cpu time    0.1140: real time    0.1140
       DOS:  cpu time    0.0010: real time    0.0016
    --------------------------------------------
      LOOP:  cpu time    0.1150: real time    0.1156

 eigenvalue-minimisations  :   360
 total energy-change (2. order) :-0.2006092E+00  (-0.1998320E+00)
 number of electron      18.0000000 magnetization 
 augmentation part       18.0000000 magnetization 

 Free energy of the ion-electron system (eV)
  ---------------------------------------------------
  alpha Z        PSCENC =        12.51390764
  Ewald energy   TEWEN  =      4286.25630342
  -Hartree energ DENC   =     -4967.71356794
  -exchange      EXHF   =         0.00000000
  -V(xc)+E(xc)   XCENC  =       -36.31055464
  PAW double counting   =       406.88651198     -329.34073203
  entropy T*S    EENTRO =        -0.00000000
  eigenvalues    EBANDS =      -166.72535038
  atomic energy  EATOM  =       771.06857575
  Solvation  Ediel_sol  =         0.00000000
  ---------------------------------------------------
  free energy    TOTEN  =       -23.36490619 eV

  energy without entropy =      -23.36490619  energy(sigma->0) =      -23.36490619


--------------------------------------------------------------------------------------------------------




--------------------------------------- Iteration      1(   5)  ---------------------------------------


     EDDAV:  cpu time    0.1120: real time    0.1115
       DOS:  cpu time    0.0010: real time    0.0016
    CHARGE:  cpu time    0.0080: real time    0.0079
    MIXING:  cpu time    0.0010: real time    0.0009
    --------------------------------------------
      LOOP:  cpu time    0.1220: real time    0.1219

 eigenvalue-minimisations  :   352
 total energy-change (2. order) :-0.5735313E-02  (-0.5734019E-02)
 number of electron      17.9999904 magnetization 
 augmentation part       -0.9516706 magnetization 

 Broyden mixing:
  rms(total) = 0.69126E+00    rms(broyden)= 0.69107E+00
  rms(prec ) = 0.74807E+00
  weight for this iteration     100.00

 Free energy of the ion-electron system (eV)
  ---------------------------------------------------
  alpha Z        PSCENC =        12.51390764
  Ewald energy   TEWEN  =      4286.25630342
  -Hartree energ DENC   =     -4967.71356794
  -exchange      EXHF   =         0.00000000
  -V(xc)+E(xc)   XCENC  =       -36.31055464
  PAW double counting   =       406.88651198     -329.34073203
  entropy T*S    EENTRO =        -0.00000000
  eigenvalues    EBANDS =      -166.73108569
  atomic energy  EATOM  =       771.06857575
  Solvation  Ediel_sol  =         0.00000000
  ---------------------------------------------------
  free energy    TOTEN  =       -23.37064150 eV

  energy without entropy =      -23.37064150  energy(sigma->0) =      -23.37064150


--------------------------------------------------------------------------------------------------------




--------------------------------------- Iteration      1(   6)  ---------------------------------------


    POTLOK:  cpu time    0.0140: real time    0.0145
    SETDIJ:  cpu time    0.0020: real time    0.0018
    EDDIAG:  cpu time    0.0180: real time    0.0187
  RMM-DIIS:  cpu time    0.0610: real time    0.0613
    ORTHCH:  cpu time    0.0020: real time    0.0020
       DOS:  cpu time    0.0020: real time    0.0016
    CHARGE:  cpu time    0.0070: real time    0.0076
    MIXING:  cpu time    0.0010: real time    0.0008
    --------------------------------------------
      LOOP:  cpu time    0.1070: real time    0.1084

 eigenvalue-minimisations  :   292
 total energy-change (2. order) : 0.1158394E+01  (-0.5385674E+00)
 number of electron      17.9999900 magnetization 
 augmentation part       -0.4079701 magnetization 

 Broyden mixing:
  rms(total) = 0.26323E+00    rms(broyden)= 0.26302E+00
  rms(prec ) = 0.30870E+00
  weight for this iteration     100.00

 eigenvalues of (default mixing * dielectric matrix)
  average eigenvalue GAMMA=   0.8350
  0.8350

 Free energy of the ion-electron system (eV)
  ---------------------------------------------------
  alpha Z        PSCENC =        12.51390764
  Ewald energy   TEWEN  =      4286.25630342
  -Hartree energ DENC   =     -4965.98155061
  -exchange      EXHF   =         0.00000000
  -V(xc)+E(xc)   XCENC  =       -35.41166303
  PAW double counting   =       426.19588486     -349.54086002
  entropy T*S    EENTRO =        -0.00000003
  eigenvalues    EBANDS =      -167.31284589
  atomic energy  EATOM  =       771.06857575
  Solvation  Ediel_sol  =         0.00000000
  ---------------------------------------------------
  free energy    TOTEN  =       -22.21224790 eV

  energy without entropy =      -22.21224787  energy(sigma->0) =      -22.21224788


--------------------------------------------------------------------------------------------------------




--------------------------------------- Iteration      1(   7)  ---------------------------------------


    POTLOK:  cpu time    0.0130: real time    0.0136
    SETDIJ:  cpu time    0.0020: real time    0.0018
    EDDIAG:  cpu time    0.0180: real time    0.0183
  RMM-DIIS:  cpu time    0.0600: real time    0.0597
    ORTHCH:  cpu time    0.0020: real time    0.0020
       DOS:  cpu time    0.0020: real time    0.0016
    CHARGE:  cpu time    0.0070: real time    0.0076
    MIXING:  cpu time    0.0010: real time    0.0006
    --------------------------------------------
      LOOP:  cpu time    0.1050: real time    0.1053

 eigenvalue-minimisations  :   290
 total energy-change (2. order) : 0.3836536E+00  (-0.5626348E-01)
 number of electron      17.9999902 magnetization 
 augmentation part       -0.6104978 magnetization 

 Broyden mixing:
  rms(total) = 0.15347E+00    rms(broyden)= 0.15345E+00
  rms(prec ) = 0.16188E+00
  weight for this iteration     100.00

 eigenvalues of (default mixing * dielectric matrix)
  average eigenvalue GAMMA=   1.3725
  0.6632  2.0819

 Free energy of the ion-electron system (eV)
  ---------------------------------------------------
  alpha Z        PSCENC =        12.51390764
  Ewald energy   TEWEN  =      4286.25630342
  -Hartree energ DENC   =     -4971.36579112
  -exchange      EXHF   =         0.00000000
  -V(xc)+E(xc)   XCENC  =       -35.55367820
  PAW double counting   =       445.05524424     -368.63081762
  entropy T*S    EENTRO =        -0.00000000
  eigenvalues    EBANDS =      -161.17233846
  atomic energy  EATOM  =       771.06857575
  Solvation  Ediel_sol  =         0.00000000
  ---------------------------------------------------
  free energy    TOTEN  =       -21.82859434 eV

  energy without entropy =      -21.82859434  energy(sigma->0) =      -21.82859434


--------------------------------------------------------------------------------------------------------




--------------------------------------- Iteration      1(   8)  ---------------------------------------


    POTLOK:  cpu time    0.0130: real time    0.0134
    SETDIJ:  cpu time    0.0020: real time    0.0018
    EDDIAG:  cpu time    0.0180: real time    0.0182
  RMM-DIIS:  cpu time    0.0630: real time    0.0629
    ORTHCH:  cpu time    0.0010: real time    0.0020
       DOS:  cpu time    0.0020: real time    0.0016
    CHARGE:  cpu time    0.0070: real time    0.0076
    MIXING:  cpu time    0.0020: real time    0.0011
    --------------------------------------------
      LOOP:  cpu time    0.1080: real time    0.1087

 eigenvalue-minimisations  :   303
 total energy-change (2. order) : 0.6007582E-01  (-0.2350259E-01)
 number of electron      17.9999901 magnetization 
 augmentation part       -0.5612805 magnetization 

 Broyden mixing:
  rms(total) = 0.34918E-01    rms(broyden)= 0.34893E-01
  rms(prec ) = 0.37236E-01
  weight for this iteration     100.00

 eigenvalues of (default mixing * dielectric matrix)
  average eigenvalue GAMMA=   1.4968
  1.9146  1.9146  0.6611

 Free energy of the ion-electron system (eV)
  ---------------------------------------------------
  alpha Z        PSCENC =        12.51390764
  Ewald energy   TEWEN  =      4286.25630342
  -Hartree energ DENC   =     -4975.27240998
  -exchange      EXHF   =         0.00000000
  -V(xc)+E(xc)   XCENC  =       -35.26876706
  PAW double counting   =       471.19954622     -395.29609244
  entropy T*S    EENTRO =        -0.00000000
  eigenvalues    EBANDS =      -156.96958208
  atomic energy  EATOM  =       771.06857575
  Solvation  Ediel_sol  =         0.00000000
  ---------------------------------------------------
  free energy    TOTEN  =       -21.76851852 eV

  energy without entropy =      -21.76851852  energy(sigma->0) =      -21.76851852


--------------------------------------------------------------------------------------------------------




--------------------------------------- Iteration      1(   9)  ---------------------------------------


    POTLOK:  cpu time    0.0130: real time    0.0165
    SETDIJ:  cpu time    0.0020: real time    0.0018
    EDDIAG:  cpu time    0.0180: real time    0.0182
  RMM-DIIS:  cpu time    0.0700: real time    0.0699
    ORTHCH:  cpu time    0.0020: real time    0.0020
       DOS:  cpu time    0.0020: real time    0.0016
    CHARGE:  cpu time    0.0070: real time    0.0077
    MIXING:  cpu time    0.0010: real time    0.0007
    --------------------------------------------
      LOOP:  cpu time    0.1150: real time    0.1184

 eigenvalue-minimisations  :   335
 total energy-change (2. order) : 0.4688436E-02  (-0.8260861E-03)
 number of electron      17.9999901 magnetization 
 augmentation part       -0.5581889 magnetization 

 Broyden mixing:
  rms(total) = 0.92556E-02    rms(broyden)= 0.92490E-02
  rms(prec ) = 0.11394E-01
  weight for this iteration     100.00

 eigenvalues of (default mixing * dielectric matrix)
  average eigenvalue GAMMA=   1.5045
  0.6625  1.0477  2.4425  1.8651

 Free energy of the ion-electron system (eV)
  ---------------------------------------------------
  alpha Z        PSCENC =        12.51390764
  Ewald energy   TEWEN  =      4286.25630342
  -Hartree energ DENC   =     -4976.52353714
  -exchange      EXHF   =         0.00000000
  -V(xc)+E(xc)   XCENC  =       -35.21787824
  PAW double counting   =       476.73094528     -400.90061211
  entropy T*S    EENTRO =        -0.00000000
  eigenvalues    EBANDS =      -155.69153468
  atomic energy  EATOM  =       771.06857575
  Solvation  Ediel_sol  =         0.00000000
  ---------------------------------------------------
  free energy    TOTEN  =       -21.76383009 eV

  energy without entropy =      -21.76383009  energy(sigma->0) =      -21.76383009


--------------------------------------------------------------------------------------------------------




--------------------------------------- Iteration      1(  10)  ---------------------------------------


    POTLOK:  cpu time    0.0130: real time    0.0132
    SETDIJ:  cpu time    0.0020: real time    0.0018
    EDDIAG:  cpu time    0.0180: real time    0.0183
  RMM-DIIS:  cpu time    0.0700: real time    0.0697
    ORTHCH:  cpu time    0.0020: real time    0.0020
       DOS:  cpu time    0.0010: real time    0.0016
    CHARGE:  cpu time    0.0070: real time    0.0076
    MIXING:  cpu time    0.0010: real time    0.0007
    --------------------------------------------
      LOOP:  cpu time    0.1140: real time    0.1150

 eigenvalue-minimisations  :   335
 total energy-change (2. order) : 0.6878376E-03  (-0.1636772E-03)
 number of electron      17.9999901 magnetization 
 augmentation part       -0.5614606 magnetization 

 Broyden mixing:
  rms(total) = 0.43225E-02    rms(broyden)= 0.43168E-02
  rms(prec ) = 0.60087E-02
  weight for this iteration     100.00

 eigenvalues of (default mixing * dielectric matrix)
  average eigenvalue GAMMA=   1.6708
  0.6631  1.0341  2.1648  2.2461  2.2461

 Free energy of the ion-electron system (eV)
  ---------------------------------------------------
  alpha Z        PSCENC =        12.51390764
  Ewald energy   TEWEN  =      4286.25630342
  -Hartree energ DENC   =     -4977.63786910
  -exchange      EXHF   =         0.00000000
  -V(xc)+E(xc)   XCENC  =       -35.19344586
  PAW double counting   =       479.27587022     -403.47797038
  entropy T*S    EENTRO =        -0.00000000
  eigenvalues    EBANDS =      -154.56851394
  atomic energy  EATOM  =       771.06857575
  Solvation  Ediel_sol  =         0.00000000
  ---------------------------------------------------
  free energy    TOTEN  =       -21.76314225 eV

  energy without entropy =      -21.76314225  energy(sigma->0) =      -21.76314225


--------------------------------------------------------------------------------------------------------




--------------------------------------- Iteration      1(  11)  ---------------------------------------


    POTLOK:  cpu time    0.0140: real time    0.0135
    SETDIJ:  cpu time    0.0020: real time    0.0018
    EDDIAG:  cpu time    0.0180: real time    0.0183
  RMM-DIIS:  cpu time    0.0660: real time    0.0657
    ORTHCH:  cpu time    0.0010: real time    0.0020
       DOS:  cpu time    0.0020: real time    0.0016
    CHARGE:  cpu time    0.0080: real time    0.0077
    MIXING:  cpu time    0.0000: real time    0.0008
    --------------------------------------------
      LOOP:  cpu time    0.1110: real time    0.1114

 eigenvalue-minimisations  :   312
 total energy-change (2. order) : 0.6157393E-06  (-0.1778778E-03)
 number of electron      17.9999901 magnetization 
 augmentation part       -0.5585910 magnetization 

 Broyden mixing:
  rms(total) = 0.53983E-02    rms(broyden)= 0.53938E-02
  rms(prec ) = 0.62040E-02
  weight for this iteration     100.00

 eigenvalues of (default mixing * dielectric matrix)
  average eigenvalue GAMMA=   1.6637
  2.8012  2.8012  0.6634  1.4020  1.4020  0.9126

 Free energy of the ion-electron system (eV)
  ---------------------------------------------------
  alpha Z        PSCENC =        12.51390764
  Ewald energy   TEWEN  =      4286.25630342
  -Hartree energ DENC   =     -4978.79597423
  -exchange      EXHF   =         0.00000000
  -V(xc)+E(xc)   XCENC  =       -35.18092930
  PAW double counting   =       478.67584135     -402.86798644
  entropy T*S    EENTRO =        -0.00000000
  eigenvalues    EBANDS =      -153.43287982
  atomic energy  EATOM  =       771.06857575
  Solvation  Ediel_sol  =         0.00000000
  ---------------------------------------------------
  free energy    TOTEN  =       -21.76314163 eV

  energy without entropy =      -21.76314163  energy(sigma->0) =      -21.76314163


--------------------------------------------------------------------------------------------------------




--------------------------------------- Iteration      1(  12)  ---------------------------------------


    POTLOK:  cpu time    0.0140: real time    0.0134
    SETDIJ:  cpu time    0.0020: real time    0.0018
    EDDIAG:  cpu time    0.0180: real time    0.0183
  RMM-DIIS:  cpu time    0.0650: real time    0.0646
    ORTHCH:  cpu time    0.0010: real time    0.0021
       DOS:  cpu time    0.0020: real time    0.0016
    CHARGE:  cpu time    0.0080: real time    0.0077
    MIXING:  cpu time    0.0010: real time    0.0008
    --------------------------------------------
      LOOP:  cpu time    0.1110: real time    0.1103

 eigenvalue-minimisations  :   304
 total energy-change (2. order) : 0.8435194E-04  (-0.5525829E-04)
 number of electron      17.9999901 magnetization 
 augmentation part       -0.5605562 magnetization 

 Broyden mixing:
  rms(total) = 0.15260E-02    rms(broyden)= 0.15136E-02
  rms(prec ) = 0.21431E-02
  weight for this iteration     100.00

 eigenvalues of (default mixing * dielectric matrix)
  average eigenvalue GAMMA=   1.9521
  3.8047  2.7789  2.7789  0.6634  0.9694  1.3346  1.3346

 Free energy of the ion-electron system (eV)
  ---------------------------------------------------
  alpha Z        PSCENC =        12.51390764
  Ewald energy   TEWEN  =      4286.25630342
  -Hartree energ DENC   =     -4979.44958750
  -exchange      EXHF   =         0.00000000
  -V(xc)+E(xc)   XCENC  =       -35.17653862
  PAW double counting   =       478.85149401     -403.04138264
  entropy T*S    EENTRO =        -0.00000000
  eigenvalues    EBANDS =      -152.78582933
  atomic energy  EATOM  =       771.06857575
  Solvation  Ediel_sol  =         0.00000000
  ---------------------------------------------------
  free energy    TOTEN  =       -21.76305728 eV

  energy without entropy =      -21.76305728  energy(sigma->0) =      -21.76305728


--------------------------------------------------------------------------------------------------------




--------------------------------------- Iteration      1(  13)  ---------------------------------------


    POTLOK:  cpu time    0.0130: real time    0.0140
    SETDIJ:  cpu time    0.0020: real time    0.0018
    EDDIAG:  cpu time    0.0180: real time    0.0182
  RMM-DIIS:  cpu time    0.0610: real time    0.0604
    ORTHCH:  cpu time    0.0010: real time    0.0020
       DOS:  cpu time    0.0020: real time    0.0016
    CHARGE:  cpu time    0.0070: real time    0.0076
    MIXING:  cpu time    0.0010: real time    0.0009
    --------------------------------------------
      LOOP:  cpu time    0.1050: real time    0.1066

 eigenvalue-minimisations  :   299
 total energy-change (2. order) :-0.4485139E-03  (-0.1455473E-04)
 number of electron      17.9999901 magnetization 
 augmentation part       -0.5594426 magnetization 

 Broyden mixing:
  rms(total) = 0.18003E-02    rms(broyden)= 0.17902E-02
  rms(prec ) = 0.20103E-02
  weight for this iteration     100.00

 eigenvalues of (default mixing * dielectric matrix)
  average eigenvalue GAMMA=   1.8982
  4.7335  2.6975  2.3606  1.4107  1.4107  0.6635  0.9546  0.9546

 Free energy of the ion-electron system (eV)
  ---------------------------------------------------
  alpha Z        PSCENC =        12.51390764
  Ewald energy   TEWEN  =      4286.25630342
  -Hartree energ DENC   =     -4980.16785683
  -exchange      EXHF   =         0.00000000
  -V(xc)+E(xc)   XCENC  =       -35.17033479
  PAW double counting   =       478.83048820     -403.02541380
  entropy T*S    EENTRO =        -0.00000000
  eigenvalues    EBANDS =      -152.06917539
  atomic energy  EATOM  =       771.06857575
  Solvation  Ediel_sol  =         0.00000000
  ---------------------------------------------------
  free energy    TOTEN  =       -21.76350580 eV

  energy without entropy =      -21.76350580  energy(sigma->0) =      -21.76350580


--------------------------------------------------------------------------------------------------------




--------------------------------------- Iteration      1(  14)  ---------------------------------------


    POTLOK:  cpu time    0.0140: real time    0.0138
    SETDIJ:  cpu time    0.0020: real time    0.0018
    EDDIAG:  cpu time    0.0180: real time    0.0182
  RMM-DIIS:  cpu time    0.0670: real time    0.0670
    ORTHCH:  cpu time    0.0010: real time    0.0020
       DOS:  cpu time    0.0020: real time    0.0016
    CHARGE:  cpu time    0.0070: real time    0.0076
    MIXING:  cpu time    0.0010: real time    0.0009
    --------------------------------------------
      LOOP:  cpu time    0.1120: real time    0.1130

 eigenvalue-minimisations  :   323
 total energy-change (2. order) :-0.6063730E-04  (-0.2514198E-05)
 number of electron      17.9999901 magnetization 
 augmentation part       -0.5604967 magnetization 

 Broyden mixing:
  rms(total) = 0.53853E-03    rms(broyden)= 0.50358E-03
  rms(prec ) = 0.69708E-03
  weight for this iteration     100.00

 eigenvalues of (default mixing * dielectric matrix)
  average eigenvalue GAMMA=   2.1805
  6.5840  3.0251  2.3507  2.3507  0.6635  1.5056  0.9785  0.9785  1.1883

 Free energy of the ion-electron system (eV)
  ---------------------------------------------------
  alpha Z        PSCENC =        12.51390764
  Ewald energy   TEWEN  =      4286.25630342
  -Hartree energ DENC   =     -4980.31055646
  -exchange      EXHF   =         0.00000000
  -V(xc)+E(xc)   XCENC  =       -35.17258906
  PAW double counting   =       478.62730861     -402.81750954
  entropy T*S    EENTRO =        -0.00000000
  eigenvalues    EBANDS =      -151.92900679
  atomic energy  EATOM  =       771.06857575
  Solvation  Ediel_sol  =         0.00000000
  ---------------------------------------------------
  free energy    TOTEN  =       -21.76356643 eV

  energy without entropy =      -21.76356643  energy(sigma->0) =      -21.76356643


--------------------------------------------------------------------------------------------------------




--------------------------------------- Iteration      1(  15)  ---------------------------------------


    POTLOK:  cpu time    0.0140: real time    0.0139
    SETDIJ:  cpu time    0.0020: real time    0.0018
    EDDIAG:  cpu time    0.0180: real time    0.0182
  RMM-DIIS:  cpu time    0.0600: real time    0.0597
    ORTHCH:  cpu time    0.0020: real time    0.0020
       DOS:  cpu time    0.0020: real time    0.0016
    CHARGE:  cpu time    0.0070: real time    0.0076
    MIXING:  cpu time    0.0010: real time    0.0010
    --------------------------------------------
      LOOP:  cpu time    0.1060: real time    0.1059

 eigenvalue-minimisations  :   291
 total energy-change (2. order) :-0.1228206E-03  (-0.1327911E-05)
 number of electron      17.9999901 magnetization 
 augmentation part       -0.5600335 magnetization 

 Broyden mixing:
  rms(total) = 0.40432E-03    rms(broyden)= 0.35686E-03
  rms(prec ) = 0.44945E-03
  weight for this iteration     100.00
  WARNING: grid for Broyden might be to small

 eigenvalues of (default mixing * dielectric matrix)
  average eigenvalue GAMMA=   2.1507
  6.5110  3.4934  2.6019  1.8044  1.8044  1.5731  0.6635  1.0499  1.0499  0.9559

 Free energy of the ion-electron system (eV)
  ---------------------------------------------------
  alpha Z        PSCENC =        12.51390764
  Ewald energy   TEWEN  =      4286.25630342
  -Hartree energ DENC   =     -4980.48675824
  -exchange      EXHF   =         0.00000000
  -V(xc)+E(xc)   XCENC  =       -35.17188733
  PAW double counting   =       478.67000474     -402.86110256
  entropy T*S    EENTRO =        -0.00000000
  eigenvalues    EBANDS =      -151.75273268
  atomic energy  EATOM  =       771.06857575
  Solvation  Ediel_sol  =         0.00000000
  ---------------------------------------------------
  free energy    TOTEN  =       -21.76368925 eV

  energy without entropy =      -21.76368925  energy(sigma->0) =      -21.76368925


--------------------------------------------------------------------------------------------------------




--------------------------------------- Iteration      1(  16)  ---------------------------------------


    POTLOK:  cpu time    0.0140: real time    0.0137
    SETDIJ:  cpu time    0.0020: real time    0.0018
    EDDIAG:  cpu time    0.0180: real time    0.0183
  RMM-DIIS:  cpu time    0.0530: real time    0.0532
    ORTHCH:  cpu time    0.0020: real time    0.0020
       DOS:  cpu time    0.0020: real time    0.0016
    CHARGE:  cpu time    0.0070: real time    0.0076
    MIXING:  cpu time    0.0010: real time    0.0011
    --------------------------------------------
      LOOP:  cpu time    0.0990: real time    0.0993

 eigenvalue-minimisations  :   241
 total energy-change (2. order) :-0.3884193E-04  (-0.2908035E-06)
 number of electron      17.9999901 magnetization 
 augmentation part       -0.5603754 magnetization 

 Broyden mixing:
  rms(total) = 0.27823E-03    rms(broyden)= 0.20329E-03
  rms(prec ) = 0.25438E-03
  weight for this iteration     100.00
  WARNING: grid for Broyden might be to small

 eigenvalues of (default mixing * dielectric matrix)
  average eigenvalue GAMMA=   2.3852
  7.4195  4.8418  2.9391  2.5850  2.1329  1.5011  0.6635  1.2191  0.9979  0.9979
  0.9399

 Free energy of the ion-electron system (eV)
  ---------------------------------------------------
  alpha Z        PSCENC =        12.51390764
  Ewald energy   TEWEN  =      4286.25630342
  -Hartree energ DENC   =     -4980.53866856
  -exchange      EXHF   =         0.00000000
  -V(xc)+E(xc)   XCENC  =       -35.17212733
  PAW double counting   =       478.71286011     -402.90440046
  entropy T*S    EENTRO =        -0.00000000
  eigenvalues    EBANDS =      -151.70017866
  atomic energy  EATOM  =       771.06857575
  Solvation  Ediel_sol  =         0.00000000
  ---------------------------------------------------
  free energy    TOTEN  =       -21.76372810 eV

  energy without entropy =      -21.76372810  energy(sigma->0) =      -21.76372810


--------------------------------------------------------------------------------------------------------




--------------------------------------- Iteration      1(  17)  ---------------------------------------


    POTLOK:  cpu time    0.0130: real time    0.0137
    SETDIJ:  cpu time    0.0020: real time    0.0018
    EDDIAG:  cpu time    0.0190: real time    0.0183
  RMM-DIIS:  cpu time    0.0460: real time    0.0458
    ORTHCH:  cpu time    0.0010: real time    0.0020
       DOS:  cpu time    0.0020: real time    0.0016
    CHARGE:  cpu time    0.0070: real time    0.0076
    MIXING:  cpu time    0.0010: real time    0.0011
    --------------------------------------------
      LOOP:  cpu time    0.0910: real time    0.0919

 eigenvalue-minimisations  :   205
 total energy-change (2. order) :-0.3643776E-04  (-0.2653498E-06)
 number of electron      17.9999901 magnetization 
 augmentation part       -0.5602416 magnetization 

 Broyden mixing:
  rms(total) = 0.23879E-03    rms(broyden)= 0.14472E-03
  rms(prec ) = 0.15942E-03
  weight for this iteration     100.00
  WARNING: grid for Broyden might be to small

 eigenvalues of (default mixing * dielectric matrix)
  average eigenvalue GAMMA=   2.2825
  7.6335  4.9448  2.9293  2.4937  2.1405  1.4894  0.6635  1.3221  1.0014  1.0014
  0.9404  0.8303

 Free energy of the ion-electron system (eV)
  ---------------------------------------------------
  alpha Z        PSCENC =        12.51390764
  Ewald energy   TEWEN  =      4286.25630342
  -Hartree energ DENC   =     -4980.56838534
  -exchange      EXHF   =         0.00000000
  -V(xc)+E(xc)   XCENC  =       -35.17215159
  PAW double counting   =       478.67253978     -402.86324451
  entropy T*S    EENTRO =        -0.00000000
  eigenvalues    EBANDS =      -151.67130968
  atomic energy  EATOM  =       771.06857575
  Solvation  Ediel_sol  =         0.00000000
  ---------------------------------------------------
  free energy    TOTEN  =       -21.76376453 eV

  energy without entropy =      -21.76376453  energy(sigma->0) =      -21.76376453


--------------------------------------------------------------------------------------------------------




--------------------------------------- Iteration      1(  18)  ---------------------------------------


    POTLOK:  cpu time    0.0140: real time    0.0136
    SETDIJ:  cpu time    0.0020: real time    0.0018
    EDDIAG:  cpu time    0.0180: real time    0.0183
  RMM-DIIS:  cpu time    0.0460: real time    0.0456
    ORTHCH:  cpu time    0.0020: real time    0.0020
       DOS:  cpu time    0.0010: real time    0.0016
    CHARGE:  cpu time    0.0080: real time    0.0077
    MIXING:  cpu time    0.0010: real time    0.0012
    --------------------------------------------
      LOOP:  cpu time    0.0920: real time    0.0918

 eigenvalue-minimisations  :   163
 total energy-change (2. order) :-0.2739906E-05  (-0.2571096E-07)
 number of electron      17.9999901 magnetization 
 augmentation part       -0.5602402 magnetization 

 Broyden mixing:
  rms(total) = 0.20071E-03    rms(broyden)= 0.64989E-04
  rms(prec ) = 0.75702E-04
  weight for this iteration     100.00
  WARNING: grid for Broyden might be to small

 eigenvalues of (default mixing * dielectric matrix)
  average eigenvalue GAMMA=   2.4226
  7.7741  6.0954  2.8932  2.8932  2.3282  2.1327  1.5865  0.6635  1.0953  1.0953
  1.0974  0.9507  0.8885

 Free energy of the ion-electron system (eV)
  ---------------------------------------------------
  alpha Z        PSCENC =        12.51390764
  Ewald energy   TEWEN  =      4286.25630342
  -Hartree energ DENC   =     -4980.56978985
  -exchange      EXHF   =         0.00000000
  -V(xc)+E(xc)   XCENC  =       -35.17212732
  PAW double counting   =       478.68235564     -402.87326418
  entropy T*S    EENTRO =        -0.00000000
  eigenvalues    EBANDS =      -151.66972838
  atomic energy  EATOM  =       771.06857575
  Solvation  Ediel_sol  =         0.00000000
  ---------------------------------------------------
  free energy    TOTEN  =       -21.76376727 eV

  energy without entropy =      -21.76376727  energy(sigma->0) =      -21.76376727


--------------------------------------------------------------------------------------------------------




--------------------------------------- Iteration      1(  19)  ---------------------------------------


    POTLOK:  cpu time    0.0130: real time    0.0160
    SETDIJ:  cpu time    0.0020: real time    0.0018
    EDDIAG:  cpu time    0.0190: real time    0.0182
  RMM-DIIS:  cpu time    0.0460: real time    0.0459
    ORTHCH:  cpu time    0.0010: real time    0.0020
       DOS:  cpu time    0.0020: real time    0.0016
    CHARGE:  cpu time    0.0070: real time    0.0076
    MIXING:  cpu time    0.0020: real time    0.0013
    --------------------------------------------
      LOOP:  cpu time    0.0920: real time    0.0946

 eigenvalue-minimisations  :   188
 total energy-change (2. order) :-0.5479962E-05  (-0.6152759E-07)
 number of electron      17.9999901 magnetization 
 augmentation part       -0.5602767 magnetization 

 Broyden mixing:
  rms(total) = 0.20205E-03    rms(broyden)= 0.69005E-04
  rms(prec ) = 0.74561E-04
  weight for this iteration     100.00
  WARNING: grid for Broyden might be to small

 eigenvalues of (default mixing * dielectric matrix)
  average eigenvalue GAMMA=   2.4565
  8.3315  6.1867  3.7742  2.7871  2.4565  1.8038  1.8038  1.5221  0.6635  1.1040
  1.1040  0.9656  0.9443  0.9443

 Free energy of the ion-electron system (eV)
  ---------------------------------------------------
  alpha Z        PSCENC =        12.51390764
  Ewald energy   TEWEN  =      4286.25630342
  -Hartree energ DENC   =     -4980.57182176
  -exchange      EXHF   =         0.00000000
  -V(xc)+E(xc)   XCENC  =       -35.17218542
  PAW double counting   =       478.68773918     -402.87880474
  entropy T*S    EENTRO =        -0.00000000
  eigenvalues    EBANDS =      -151.66748682
  atomic energy  EATOM  =       771.06857575
  Solvation  Ediel_sol  =         0.00000000
  ---------------------------------------------------
  free energy    TOTEN  =       -21.76377275 eV

  energy without entropy =      -21.76377275  energy(sigma->0) =      -21.76377275


--------------------------------------------------------------------------------------------------------




--------------------------------------- Iteration      1(  20)  ---------------------------------------


    POTLOK:  cpu time    0.0130: real time    0.0135
    SETDIJ:  cpu time    0.0020: real time    0.0018
    EDDIAG:  cpu time    0.0180: real time    0.0182
  RMM-DIIS:  cpu time    0.0430: real time    0.0421
    ORTHCH:  cpu time    0.0010: real time    0.0020
       DOS:  cpu time    0.0020: real time    0.0016
    --------------------------------------------
      LOOP:  cpu time    0.0790: real time    0.0792

 eigenvalue-minimisations  :   145
 total energy-change (2. order) :-0.4549767E-06  (-0.1096675E-07)
 number of electron      17.9999901 magnetization 
 augmentation part       -0.5602767 magnetization 

 Free energy of the ion-electron system (eV)
  ---------------------------------------------------
  alpha Z        PSCENC =        12.51390764
  Ewald energy   TEWEN  =      4286.25630342
  -Hartree energ DENC   =     -4980.57689545
  -exchange      EXHF   =         0.00000000
  -V(xc)+E(xc)   XCENC  =       -35.17212090
  PAW double counting   =       478.68458778     -402.87562444
  entropy T*S    EENTRO =        -0.00000000
  eigenvalues    EBANDS =      -151.66250700
  atomic energy  EATOM  =       771.06857575
  Solvation  Ediel_sol  =         0.00000000
  ---------------------------------------------------
  free energy    TOTEN  =       -21.76377321 eV

  energy without entropy =      -21.76377321  energy(sigma->0) =      -21.76377321


--------------------------------------------------------------------------------------------------------




 average (electrostatic) potential at core
  the test charge radii are     1.2296  0.9698
  (the norm of the test charge is              1.0000)
       1 -46.8910       2 -94.7431       3 -94.7432
 
 
 
 E-fermi :  -2.6100     XC(G=0):  -2.9260     alpha+bet : -2.6672


 k-point     1 :       0.0000    0.0000    0.0000
  band No.  band energies     occupation 
      1     -17.4731      2.00000
      2     -16.2648      2.00000
      3      -8.9831      2.00000
      4      -6.0211      2.00000
      5      -6.0208      2.00000
      6      -5.1614      2.00000
      7      -4.9140      2.00000
      8      -4.9136      2.00000
      9      -3.4389      2.00000
     10      -0.6647      0.00000
     11      -0.6639      0.00000
     12      -0.4426      0.00000
     13      -0.4419      0.00000
     14       1.9579      0.00000

 k-point     2 :       0.1250    0.0000    0.0000
  band No.  band energies     occupation 
      1     -17.2591      2.00000
      2     -16.1623      2.00000
      3      -8.7381      2.00000
      4      -6.4855      2.00000
      5      -5.9685      2.00000
      6      -5.7868      2.00000
      7      -5.2501      2.00000
      8      -4.4825      2.00000
      9      -3.5778      2.00000
     10      -0.9475      0.00000
     11      -0.8807      0.00000
     12      -0.6792      0.00000
     13      -0.3106      0.00000
     14       2.3222      0.00000

 k-point     3 :       0.2500    0.0000    0.0000
  band No.  band energies     occupation 
      1     -16.6905      2.00000
      2     -15.8934      2.00000
      3      -8.3723      2.00000
      4      -7.2137      2.00000
      5      -6.9500      2.00000
      6      -5.8868      2.00000
      7      -5.2010      2.00000
      8      -4.7345      2.00000
      9      -4.1463      2.00000
     10      -1.2717      0.00000
     11      -1.0966      0.00000
     12      -0.5534      0.00000
     13       0.3045      0.00000
     14       3.1490      0.00000

 k-point     4 :       0.3750    0.0000    0.0000
  band No.  band energies     occupation 
      1     -16.0156      2.00000
      2     -15.5849      2.00000
      3      -8.8114      2.00000
      4      -7.8189      2.00000
      5      -7.3449      2.00000
      6      -6.3854      2.00000
      7      -5.1434      2.00000
      8      -4.6112      2.00000
      9      -4.3405      2.00000
     10      -1.2791      0.00000
     11      -0.9994      0.00000
     12       0.1654      0.00000
     13       0.6970      0.00000
     14       3.7217      0.00000

 k-point     5 :       0.5000    0.0000    0.0000
  band No.  band energies     occupation 
      1     -15.6873      2.00000
      2     -15.4415      2.00000
      3      -9.1445      2.00000
      4      -8.1849      2.00000
      5      -7.4704      2.00000
      6      -6.5660      2.00000
      7      -5.2820      2.00000
      8      -4.3840      2.00000
      9      -4.0589      2.00000
     10      -1.2574      0.00000
     11      -0.7429      0.00000
     12       0.4652      0.00000
     13       0.8129      0.00000
     14       2.7672      0.00000

 k-point     6 :       0.1250    0.1250    0.0000
  band No.  band energies     occupation 
      1     -16.8664      2.00000
      2     -15.9752      2.00000
      3      -8.3906      2.00000
      4      -7.0509      2.00000
      5      -6.5312      2.00000
      6      -6.0645      2.00000
      7      -5.4484      2.00000
      8      -4.3478      2.00000
      9      -3.9505      2.00000
     10      -1.3468      0.00000
     11      -0.9692      0.00000
     12      -0.9571      0.00000
     13       0.2836      0.00000
     14       2.9165      0.00000

 k-point     7 :       0.2500    0.1250    0.0000
  band No.  band energies     occupation 
      1     -16.2330      2.00000
      2     -15.6766      2.00000
      3      -8.4549      2.00000
      4      -7.4773      2.00000
      5      -7.2140      2.00000
      6      -6.5698      2.00000
      7      -5.3493      2.00000
      8      -4.7106      2.00000
      9      -4.2342      2.00000
     10      -1.4305      0.00000
     11      -0.9837      0.00000
     12      -0.4869      0.00000
     13       0.7891      0.00000
     14       3.9073      0.00000

 k-point     8 :       0.3750    0.1250    0.0000
  band No.  band energies     occupation 
      1     -15.7026      2.00000
      2     -15.4326      2.00000
      3      -8.8570      2.00000
      4      -8.2409      2.00000
      5      -7.3430      2.00000
      6      -6.5874      2.00000
      7      -5.3342      2.00000
      8      -5.1921      2.00000
      9      -3.9075      2.00000
     10      -1.2385      0.00000
     11      -0.7284      0.00000
     12       0.1368      0.00000
     13       0.8229      0.00000
     14       3.2922      0.00000

 k-point     9 :       0.2500    0.2500    0.0000
  band No.  band energies     occupation 
      1     -15.7176      2.00000
      2     -15.4237      2.00000
      3      -8.4960      2.00000
      4      -8.2907      2.00000
      5      -7.0164      2.00000
      6      -6.6356      2.00000
      7      -6.3165      2.00000
      8      -5.0589      2.00000
      9      -3.9372      2.00000
     10      -1.2894      0.00000
     11      -0.6776      0.00000
     12      -0.3609      0.00000
     13       1.1073      0.00000
     14       4.1234      0.00000

 k-point    10 :       0.3750    0.2500    0.0000
  band No.  band energies     occupation 
      1     -15.4826      2.00000
      2     -15.3046      2.00000
      3      -8.6755      2.00000
      4      -8.3267      2.00000
      5      -7.2999      2.00000
      6      -6.6377      2.00000
      7      -6.4096      2.00000
      8      -5.4444      2.00000
      9      -3.5697      2.00000
     10      -1.6156      0.00000
     11      -0.2997      0.00000
     12      -0.1281      0.00000
     13       1.2505      0.00000
     14       3.5372      0.00000


--------------------------------------------------------------------------------------------------------


 soft charge-density along one line, spin component           1
         0         1         2         3         4         5         6         7         8         9
 total charge-density along one line
 
 pseudopotential strength for first ion, spin component:           1
 -9.990  -0.000  -0.000   0.000  -0.000   0.103   0.000   0.000
 -0.000  -9.990  -0.000  -0.000  -0.000   0.000   0.103   0.000
 -0.000  -0.000  -9.969  -0.000   0.000   0.000   0.000   0.101
  0.000  -0.000  -0.000  -9.990   0.000  -0.000   0.000   0.000
 -0.000  -0.000   0.000   0.000  -9.990   0.000   0.000  -0.000
  0.103   0.000   0.000  -0.000   0.000   0.098  -0.000  -0.000
  0.000   0.103   0.000   0.000   0.000  -0.000   0.098  -0.000
  0.000   0.000   0.101   0.000  -0.000  -0.000  -0.000   0.098
 -0.000   0.000   0.000   0.103  -0.000   0.000   0.000  -0.000
  0.000   0.000  -0.000  -0.000   0.103  -0.000  -0.000   0.000
 -0.000  -0.000  -0.005  -0.000   0.000   0.000   0.000   0.000
  0.000   0.000   0.001   0.000  -0.000  -0.000  -0.000  -0.000
 -0.000   0.000  -0.000  -0.000  -0.007   0.000   0.000   0.000
 -0.000   0.000  -0.000  -0.000  -0.000  -0.000  -0.000  -0.000
 -0.007  -0.000   0.000   0.000  -0.000  -0.000  -0.000  -0.000
  0.000  -0.000   0.000   0.000   0.004  -0.000   0.000  -0.000
  0.000  -0.000   0.000   0.000   0.000  -0.000   0.000   0.000
  0.004   0.000  -0.000  -0.000   0.000   0.000  -0.000   0.000
 total augmentation occupancy for first ion, spin component:           1
  0.970  -0.000  -0.000  -0.000  -0.000   0.662   0.000  -0.000  -0.000  -0.000  -0.000   0.000   0.000   0.000  -0.066  -0.000
 -0.000   0.911   0.000   0.000   0.000  -0.000   0.897   0.000   0.000   0.000   0.000   0.000   0.000   0.000   0.000   0.000
 -0.000   0.000   1.035  -0.000   0.000  -0.000   0.000   0.567   0.000   0.000   0.111  -0.019  -0.000   0.000   0.000   0.000
 -0.000   0.000   0.000   0.911   0.000   0.000   0.000   0.000   0.897   0.000   0.000  -0.000   0.000  -0.000  -0.000   0.000
 -0.000   0.000   0.000  -0.000   0.970   0.000   0.000   0.000   0.000   0.662   0.000  -0.000  -0.066   0.000  -0.000   0.007
  0.662   0.000  -0.000   0.000   0.000   0.769   0.000  -0.000   0.000  -0.000  -0.000   0.000   0.000   0.000  -0.143  -0.000
  0.000   0.897   0.000   0.000   0.000   0.000   1.205   0.000   0.000  -0.000   0.000   0.000  -0.000   0.000   0.000  -0.000
 -0.000   0.000   0.567  -0.000   0.000  -0.000   0.000   0.551   0.000   0.000   0.066  -0.023  -0.000   0.000   0.000   0.000
 -0.000   0.000   0.000   0.897  -0.000   0.000   0.000   0.000   1.205  -0.000  -0.000   0.000   0.000   0.000   0.000   0.000
 -0.000  -0.000   0.000   0.000   0.662  -0.000  -0.000   0.000   0.000   0.769   0.000  -0.000  -0.143   0.000  -0.000   0.024
 -0.000   0.000   0.111   0.000   0.000  -0.000   0.000   0.066  -0.000   0.000   1.210  -0.183   0.000   0.000  -0.000   0.000
  0.000   0.000  -0.019  -0.000  -0.000   0.000   0.000  -0.023   0.000   0.000  -0.183   0.041   0.000  -0.000  -0.000   0.000
  0.000   0.000  -0.000   0.000  -0.066   0.000  -0.000  -0.000   0.000  -0.143   0.000   0.000   0.217   0.000   0.000  -0.033
  0.000   0.000   0.000   0.000   0.000   0.000  -0.000   0.000  -0.000   0.000   0.000  -0.000   0.000   0.265   0.000  -0.000
 -0.066   0.000   0.000  -0.000  -0.000  -0.143   0.000   0.000   0.000  -0.000   0.000   0.000   0.000   0.000   0.217  -0.000
 -0.000   0.000   0.000   0.000   0.007  -0.000  -0.000   0.000   0.000   0.024   0.000   0.000  -0.033  -0.000  -0.000   0.005
  0.000  -0.000  -0.000   0.000  -0.000   0.000   0.000   0.000  -0.000   0.000   0.000  -0.000  -0.000  -0.039   0.000   0.000
  0.007  -0.000  -0.000   0.000   0.000   0.024   0.000  -0.000  -0.000   0.000   0.000   0.000  -0.000   0.000  -0.033   0.000


------------------------ aborting loop because EDIFF is reached ----------------------------------------


 


 total charge     
 
# of ion       s       p       d       tot
------------------------------------------
    1        0.414   0.593   4.443   5.450
    2        1.366   2.356   0.000   3.722
    3        1.366   2.356   0.000   3.722
--------------------------------------------------
tot          3.145   5.305   4.443  12.894
 
    CHARGE:  cpu time    0.0070: real time    0.0079
    FORLOC:  cpu time    0.0020: real time    0.0014
    FORNL :  cpu time    0.0310: real time    0.0310
    STRESS:  cpu time    0.0950: real time    0.0953
    FORCOR:  cpu time    0.0150: real time    0.0151
    FORHAR:  cpu time    0.0030: real time    0.0034
    MIXING:  cpu time    0.0010: real time    0.0013
    OFIELD:  cpu time    0.0000: real time    0.0000

  DFT-D2 method for vdW energy calculation
  -------------------------------------------------------------------

  Parameters of vdW forcefield:
         C6(Jnm^6/mol)     R0(A)
   -----------------------------
   Mo      24.670          1.639
   S        5.570          1.683

  IVDW =   1
  VDW_RADIUS =    50.000 A
  VDW_S6 =     0.750
  VDW_SR =     1.000
  VDW_D =    20.000
  LVDW_EWALD = F

  Number of pair interactions contributing to vdW energy:   12957
  Edisp (eV):   -0.59091
    FORVDW:  cpu time    0.0140: real time    0.0172

  FORCE on cell =-STRESS in cart. coord.  units (eV):
  Direction    XX          YY          ZZ          XY          YZ          ZX
  --------------------------------------------------------------------------------------
  Alpha Z    12.51391    12.51391    12.51391
  Ewald    4853.12264  4853.12308 -5419.98957     0.00019     0.00000     0.00012
  Hartree  4942.33742  4942.33743 -4904.09594     0.00002     0.00000    -0.00000
  E(xc)     -70.33529   -70.33526   -70.93958     0.00003    -0.00002    -0.00001
  Local  -10076.88896-10076.89055 10036.64447    -0.00130    -0.00029    -0.00022
  n-local   127.32529   125.94265   131.87500    -0.26630    -0.00003    -0.00004
  augment   -25.66554   -25.66510   -26.76923     0.00039    -0.00001    -0.00001
  Kinetic   236.14001   238.93454   240.02638    -7.43084     0.00004     0.00004
  Fock        0.00000     0.00000     0.00000     0.00000     0.00000     0.00000
  vdW         0.16041     0.16041    -0.13425     0.00000     0.00000    -0.00000
  -------------------------------------------------------------------------------------
  Total      -0.58450    -0.58450    -0.86882    -0.00000     0.00000     0.00000
  in kB      -3.95263    -3.95263    -5.87530    -0.00000     0.00000     0.00000
  external pressure =       -4.59 kB  Pullay stress =        0.00 kB


 VOLUME and BASIS-vectors are now :
 -----------------------------------------------------------------------------
  energy-cutoff  :      250.00
  volume of cell :      236.93
      direct lattice vectors                 reciprocal lattice vectors
     3.190315730  0.000000000  0.000000000     0.313448600  0.180969634  0.000000000
    -1.595157865  2.762894468  0.000000000     0.000000000  0.361939267  0.000000000
     0.000000000  0.000000000 26.879004300     0.000000000  0.000000000  0.037203759

  length of vectors
     3.190315730  3.190315730 26.879004300     0.361939267  0.361939267  0.037203759


 FORCES acting on ions
    electron-ion (+dipol)            ewald-force                    non-local-force                 convergence-correction
 -----------------------------------------------------------------------------------------------
   -.794E-05 -.244E-05 -.509E-04   0.931E-04 -.108E-03 0.307E-06   -.139E-16 0.000E+00 -.108E-18   0.139E-08 -.259E-08 0.592E-07
   -.121E-02 -.953E-05 0.579E+03   -.864E-04 0.538E-04 -.584E+03   0.347E-17 0.000E+00 0.496E+01   -.497E-08 0.350E-08 -.693E-03
   0.112E-02 0.106E-02 -.579E+03   -.674E-05 0.538E-04 0.584E+03   0.217E-16 -.173E-17 -.496E+01   0.354E-08 0.378E-08 0.693E-03
 -----------------------------------------------------------------------------------------------
   -.103E-03 0.105E-02 0.136E-03   0.897E-14 0.972E-14 -.114E-12   0.113E-16 -.173E-17 -.888E-15   -.323E-10 0.469E-08 0.165E-06
 
 
 POSITION                                       TOTAL-FORCE (eV/Angst)
 -----------------------------------------------------------------------------------
     -0.00000      1.84193      3.71975        -0.000000      0.000000      0.000000
      1.59516      0.92096      2.15487         0.000000      0.000000      0.103767
      1.59516      0.92096      5.28464         0.000000     -0.000000     -0.103767
 -----------------------------------------------------------------------------------
    total drift:                               -0.000103      0.001050      0.000136


--------------------------------------------------------------------------------------------------------



  FREE ENERGIE OF THE ION-ELECTRON SYSTEM (eV)
  ---------------------------------------------------
  free  energy   TOTEN  =       -22.35468227 eV

  energy  without entropy=      -22.35468227  energy(sigma->0) =      -22.35468227
 


--------------------------------------------------------------------------------------------------------


    POTLOK:  cpu time    0.0160: real time    0.0154


--------------------------------------------------------------------------------------------------------


     LOOP+:  cpu time    2.4836: real time    3.1174
    4ORBIT:  cpu time    0.0000: real time    0.0000
 


 total charge     
 
# of ion       s       p       d       tot
------------------------------------------
    1        0.414   0.593   4.443   5.450
    2        1.366   2.356   0.000   3.722
    3        1.366   2.356   0.000   3.722
--------------------------------------------------
tot          3.145   5.305   4.443  12.894
 

 total amount of memory used by VASP MPI-rank0    34979. kBytes
=======================================================================

   base      :      30000. kBytes
   nonlr-proj:        367. kBytes
   fftplans  :       1284. kBytes
   grid      :       2065. kBytes
   one-center:         31. kBytes
   wavefun   :       1232. kBytes
 
  
  
 General timing and accounting informations for this job:
 ========================================================
  
                  Total CPU time used (sec):        3.500
                            User time (sec):        3.431
                          System time (sec):        0.069
                         Elapsed time (sec):        7.357
  
                   Maximum memory used (kb):       27980.
                   Average memory used (kb):           0.
  
                          Minor page faults:         7117
                          Major page faults:          132
                 Voluntary context switches:         2514
