<?xml version="1.0" encoding="ISO-8859-1"?>
<modeling>
 <generator>
  <i name="program" type="string">vasp </i>
  <i name="version" type="string">5.4.4.18Apr17-6-g9f103f2a35  </i>
  <i name="subversion" type="string">(build Jun 30 2017 11:15:00) complex            parallel </i>
  <i name="platform" type="string">STALLO_VASP_5.4.4 </i>
  <i name="date" type="string">2019 11 08 </i>
  <i name="time" type="string">11:45:40 </i>
 </generator>
 <incar>
  <i type="string" name="PREC">normal    ! low/normal/accurate</i>
  <i type="string" name="ALGO"> Fast      ! Algorithm for electronic re</i>
  <i type="int" name="ISPIN">     1</i>
  <i type="int" name="NELMIN">     4</i>
  <i name="EDIFF">      0.00000100</i>
  <i type="int" name="NSW">     0</i>
  <i name="ENCUT">    250.00000000</i>
  <i type="int" name="NEDOS">  2401</i>
  <i type="string" name="LREAL"> Auto      ! Projection in reciprocal sp</i>
  <i name="EMIN">    -12.00000000</i>
  <i name="EMAX">     12.00000000</i>
  <i type="int" name="ISMEAR">     0</i>
  <i name="SIGMA">      0.20000000</i>
  <i type="logical" name="LWAVE"> F  </i>
  <i type="int" name="LORBIT">    11</i>
  <i type="logical" name="LELF"> T  </i>
  <v type="int" name="KPOINT_BSE">    -1     0     0     0</v>
 </incar>
 <structure name="primitive_cell" >
  <crystal>
   <varray name="basis" >
    <v>       3.19031573       0.00000000       0.00000000 </v>
    <v>      -1.59515786       2.76289447       0.00000000 </v>
    <v>       0.00000000       0.00000000      26.87900430 </v>
   </varray>
   <i name="volume">    236.92513614 </i>
   <varray name="rec_basis" >
    <v>       0.31344860       0.18096963       0.00000000 </v>
    <v>       0.00000000       0.36193927       0.00000000 </v>
    <v>       0.00000000       0.00000000       0.03720376 </v>
   </varray>
  </crystal>
  <varray name="positions" >
   <v>       0.33333300      -0.33333300       0.13838872 </v>
   <v>      -0.33333400       0.33333300       0.19660830 </v>
   <v>      -0.33333300       0.33333300       0.08016914 </v>
  </varray>
 </structure>
 <varray name="primitive_index" >
  <v type="int" >        1 </v>
  <v type="int" >        3 </v>
  <v type="int" >        2 </v>
 </varray>
 <kpoints>
  <generation param="Gamma">
   <v type="int" name="divisions">       8        8        1 </v>
   <v name="usershift">      0.00000000       0.00000000       0.00000000 </v>
   <v name="genvec1">      0.12500000       0.00000000       0.00000000 </v>
   <v name="genvec2">      0.00000000       0.12500000       0.00000000 </v>
   <v name="genvec3">      0.00000000       0.00000000       1.00000000 </v>
   <v name="shift">      0.00000000       0.00000000       0.00000000 </v>
  </generation>
  <varray name="kpointlist" >
   <v>       0.00000000       0.00000000       0.00000000 </v>
   <v>       0.12500000       0.00000000       0.00000000 </v>
   <v>       0.25000000       0.00000000       0.00000000 </v>
   <v>       0.37500000       0.00000000       0.00000000 </v>
   <v>       0.50000000       0.00000000       0.00000000 </v>
   <v>       0.12500000       0.12500000       0.00000000 </v>
   <v>       0.25000000       0.12500000       0.00000000 </v>
   <v>       0.37500000       0.12500000       0.00000000 </v>
   <v>       0.25000000       0.25000000       0.00000000 </v>
   <v>       0.37500000       0.25000000       0.00000000 </v>
  </varray>
  <varray name="weights" >
   <v>       0.01562500 </v>
   <v>       0.09375000 </v>
   <v>       0.09375000 </v>
   <v>       0.09375000 </v>
   <v>       0.04687500 </v>
   <v>       0.09375000 </v>
   <v>       0.18750000 </v>
   <v>       0.18750000 </v>
   <v>       0.09375000 </v>
   <v>       0.09375000 </v>
  </varray>
 </kpoints>
 <parameters>
  <separator name="general" >
   <i type="string" name="SYSTEM">unknown system</i>
   <i type="logical" name="LCOMPAT"> F  </i>
  </separator>
  <separator name="electronic" >
   <i type="string" name="PREC">normal</i>
   <i name="ENMAX">    250.00000000</i>
   <i name="ENAUG">    345.27800000</i>
   <i name="EDIFF">      0.00000100</i>
   <i type="int" name="IALGO">    68</i>
   <i type="int" name="IWAVPR">    10</i>
   <i type="int" name="NBANDS">    14</i>
   <i name="NELECT">     18.00000000</i>
   <i type="int" name="TURBO">     0</i>
   <i type="int" name="IRESTART">     0</i>
   <i type="int" name="NREBOOT">     0</i>
   <i type="int" name="NMIN">     0</i>
   <i name="EREF">      0.00000000</i>
   <separator name="electronic smearing" >
    <i type="int" name="ISMEAR">     0</i>
    <i name="SIGMA">      0.20000000</i>
    <i name="KSPACING">      0.50000000</i>
    <i type="logical" name="KGAMMA"> T  </i>
   </separator>
   <separator name="electronic projectors" >
    <i type="logical" name="LREAL"> T  </i>
    <v name="ROPT">     -0.00050000     -0.00050000</v>
    <i type="int" name="LMAXPAW">  -100</i>
    <i type="int" name="LMAXMIX">     2</i>
    <i type="logical" name="NLSPLINE"> F  </i>
   </separator>
   <separator name="electronic startup" >
    <i type="int" name="ISTART">     0</i>
    <i type="int" name="ICHARG">     2</i>
    <i type="int" name="INIWAV">     1</i>
   </separator>
   <separator name="electronic spin" >
    <i type="int" name="ISPIN">     1</i>
    <i type="logical" name="LNONCOLLINEAR"> F  </i>
    <v name="MAGMOM">      1.00000000      1.00000000      1.00000000</v>
    <i name="NUPDOWN">     -1.00000000</i>
    <i type="logical" name="LSORBIT"> F  </i>
    <v name="SAXIS">      0.00000000      0.00000000      1.00000000</v>
    <i type="logical" name="LSPIRAL"> F  </i>
    <v name="QSPIRAL">      0.00000000      0.00000000      0.00000000</v>
    <i type="logical" name="LZEROZ"> F  </i>
   </separator>
   <separator name="electronic exchange-correlation" >
    <i type="logical" name="LASPH"> F  </i>
    <i type="logical" name="LMETAGGA"> F  </i>
   </separator>
   <separator name="electronic convergence" >
    <i type="int" name="NELM">    60</i>
    <i type="int" name="NELMDL">    -5</i>
    <i type="int" name="NELMIN">     4</i>
    <i name="ENINI">    250.00000000</i>
    <separator name="electronic convergence detail" >
     <i type="logical" name="LDIAG"> T  </i>
     <i type="logical" name="LSUBROT"> F  </i>
     <i name="WEIMIN">      0.00000000</i>
     <i name="EBREAK">      0.00000002</i>
     <i name="DEPER">      0.30000000</i>
     <i type="int" name="NRMM">     4</i>
     <i name="TIME">      0.40000000</i>
    </separator>
   </separator>
   <separator name="electronic mixer" >
    <i name="AMIX">      0.40000000</i>
    <i name="BMIX">      1.00000000</i>
    <i name="AMIN">      0.10000000</i>
    <i name="AMIX_MAG">      1.60000000</i>
    <i name="BMIX_MAG">      1.00000000</i>
    <separator name="electronic mixer details" >
     <i type="int" name="IMIX">     4</i>
     <i type="logical" name="MIXFIRST"> F  </i>
     <i type="int" name="MAXMIX">   -45</i>
     <i name="WC">    100.00000000</i>
     <i type="int" name="INIMIX">     1</i>
     <i type="int" name="MIXPRE">     1</i>
     <i type="int" name="MREMOVE">     5</i>
    </separator>
   </separator>
   <separator name="electronic dipolcorrection" >
    <i type="logical" name="LDIPOL"> F  </i>
    <i type="logical" name="LMONO"> F  </i>
    <i type="int" name="IDIPOL">     0</i>
    <i name="EPSILON">      1.00000000</i>
    <v name="DIPOL">   -100.00000000   -100.00000000   -100.00000000</v>
    <i name="EFIELD">      0.00000000</i>
   </separator>
  </separator>
  <separator name="grids" >
   <i type="int" name="NGX">    12</i>
   <i type="int" name="NGY">    12</i>
   <i type="int" name="NGZ">   108</i>
   <i type="int" name="NGXF">    24</i>
   <i type="int" name="NGYF">    24</i>
   <i type="int" name="NGZF">   216</i>
   <i type="logical" name="ADDGRID"> F  </i>
  </separator>
  <separator name="ionic" >
   <i type="int" name="NSW">     0</i>
   <i type="int" name="IBRION">    -1</i>
   <i type="int" name="MDALGO">     0</i>
   <i type="int" name="ISIF">     2</i>
   <i name="PSTRESS">      0.00000000</i>
   <i name="EDIFFG">      0.00001000</i>
   <i type="int" name="NFREE">     0</i>
   <i name="POTIM">      0.50000000</i>
   <i name="SMASS">     -3.00000000</i>
   <i name="SCALEE">      1.00000000</i>
  </separator>
  <separator name="ionic md" >
   <i name="TEBEG">      0.00010000</i>
   <i name="TEEND">      0.00010000</i>
   <i type="int" name="NBLOCK">     1</i>
   <i type="int" name="KBLOCK">     1</i>
   <i type="int" name="NPACO">   256</i>
   <i name="APACO">     16.00000000</i>
  </separator>
  <separator name="symmetry" >
   <i type="int" name="ISYM">     2</i>
   <i name="SYMPREC">      0.00001000</i>
  </separator>
  <separator name="dos" >
   <i type="int" name="LORBIT">    11</i>
   <v name="RWIGS">     -1.00000000     -1.00000000</v>
   <i type="int" name="NEDOS">  2401</i>
   <i name="EMIN">    -12.00000000</i>
   <i name="EMAX">     12.00000000</i>
   <i name="EFERMI">      0.00000000</i>
  </separator>
  <separator name="writing" >
   <i type="int" name="NWRITE">     2</i>
   <i type="logical" name="LWAVE"> F  </i>
   <i type="logical" name="LDOWNSAMPLE"> F  </i>
   <i type="logical" name="LCHARG"> T  </i>
   <i type="logical" name="LPARD"> F  </i>
   <i type="logical" name="LVTOT"> F  </i>
   <i type="logical" name="LVHAR"> F  </i>
   <i type="logical" name="LELF"> T  </i>
   <i type="logical" name="LOPTICS"> F  </i>
   <v name="STM">      0.00000000      0.00000000      0.00000000      0.00000000      0.00000000      0.00000000      0.00000000</v>
  </separator>
  <separator name="performance" >
   <i type="int" name="NPAR">     2</i>
   <i type="int" name="NSIM">     4</i>
   <i type="int" name="NBLK">    -1</i>
   <i type="logical" name="LPLANE"> T  </i>
   <i type="logical" name="LSCALAPACK"> T  </i>
   <i type="logical" name="LSCAAWARE"> F  </i>
   <i type="logical" name="LSCALU"> F  </i>
   <i type="logical" name="LASYNC"> F  </i>
   <i type="logical" name="LORBITALREAL"> F  </i>
  </separator>
  <separator name="miscellaneous" >
   <i type="int" name="IDIOT">     3</i>
   <i type="int" name="ISPECIAL">     0</i>
   <i type="logical" name="LMUSIC"> F  </i>
   <v name="POMASS">     95.94000000     32.06600000</v>
   <v name="DARWINR">      0.00000000      0.00000000</v>
   <v name="DARWINV">      1.00000000      1.00000000</v>
   <i type="logical" name="LCORR"> T  </i>
  </separator>
  <i type="logical" name="GGA_COMPAT"> T  </i>
  <i type="logical" name="LBERRY"> F  </i>
  <i type="int" name="ICORELEVEL">     0</i>
  <i type="logical" name="LDAU"> F  </i>
  <i type="int" name="I_CONSTRAINED_M">     0</i>
  <separator name="electronic exchange-correlation" >
   <i type="string" name="GGA">--</i>
   <i type="int" name="VOSKOWN">     0</i>
   <i type="logical" name="LHFCALC"> F  </i>
   <i type="string" name="PRECFOCK"></i>
   <i type="logical" name="LSYMGRAD"> F  </i>
   <i type="logical" name="LHFONE"> F  </i>
   <i type="logical" name="LRHFCALC"> F  </i>
   <i type="logical" name="LTHOMAS"> F  </i>
   <i type="logical" name="LMODELHF"> F  </i>
   <i name="ENCUT4O">     -1.00000000</i>
   <i type="int" name="EXXOEP">     0</i>
   <i type="int" name="FOURORBIT">     0</i>
   <i name="AEXX">      0.00000000</i>
   <i name="HFALPHA">      0.00000000</i>
   <i name="MCALPHA">      0.00000000</i>
   <i name="ALDAX">      1.00000000</i>
   <i name="AGGAX">      1.00000000</i>
   <i name="ALDAC">      1.00000000</i>
   <i name="AGGAC">      1.00000000</i>
   <i type="int" name="NKREDX">     1</i>
   <i type="int" name="NKREDY">     1</i>
   <i type="int" name="NKREDZ">     1</i>
   <i type="logical" name="SHIFTRED"> F  </i>
   <i type="logical" name="ODDONLY"> F  </i>
   <i type="logical" name="EVENONLY"> F  </i>
   <i type="int" name="LMAXFOCK">     0</i>
   <i type="int" name="NMAXFOCKAE">     0</i>
   <i type="logical" name="LFOCKAEDFT"> F  </i>
   <i name="HFSCREEN">      0.00000000</i>
   <i name="HFSCREENC">      0.00000000</i>
   <i type="int" name="NBANDSGWLOW">     0</i>
  </separator>
  <separator name="vdW DFT" >
   <i type="logical" name="LUSE_VDW"> F  </i>
   <i name="Zab_VDW">     -0.84910000</i>
   <i name="PARAM1">      0.12340000</i>
   <i name="PARAM2">      1.00000000</i>
   <i name="PARAM3">      0.00000000</i>
  </separator>
  <separator name="model GW" >
   <i type="int" name="MODEL_GW">     0</i>
   <i name="MODEL_EPS0">     47.38502723</i>
   <i name="MODEL_ALPHA">      1.00000000</i>
  </separator>
  <separator name="linear response parameters" >
   <i type="logical" name="LEPSILON"> F  </i>
   <i type="logical" name="LRPA"> F  </i>
   <i type="logical" name="LNABLA"> F  </i>
   <i type="logical" name="LVEL"> F  </i>
   <i type="int" name="KINTER">     0</i>
   <i name="CSHIFT">      0.10000000</i>
   <i name="OMEGAMAX">     -1.00000000</i>
   <i name="DEG_THRESHOLD">      0.00200000</i>
   <i name="RTIME">     -0.10000000</i>
   <i name="WPLASMAI">      0.00000000</i>
   <v name="DFIELD">      0.00000000      0.00000000      0.00000000</v>
   <v name="WPLASMA">      0.00000000      0.00000000      0.00000000      0.00000000      0.00000000      0.00000000      0.00000000      0.00000000      0.00000000</v>
  </separator>
  <separator name="orbital magnetization" >
   <i type="logical" name="NUCIND"> F  </i>
   <v name="MAGPOS">      0.00000000      0.00000000      0.00000000</v>
   <i type="logical" name="LNICSALL"> T  </i>
   <i type="logical" name="ORBITALMAG"> F  </i>
   <i type="logical" name="LMAGBLOCH"> F  </i>
   <i type="logical" name="LCHIMAG"> F  </i>
   <i type="logical" name="LGAUGE"> T  </i>
   <i type="int" name="MAGATOM">     0</i>
   <v name="MAGDIPOL">      0.00000000      0.00000000      0.00000000</v>
   <v name="AVECCONST">      0.00000000      0.00000000      0.00000000</v>
  </separator>
  <separator name="response functions" >
   <i type="logical" name="LADDER"> F  </i>
   <i type="logical" name="LRPAFORCE"> F  </i>
   <i type="logical" name="LFXC"> F  </i>
   <i type="logical" name="LHARTREE"> T  </i>
   <i type="int" name="IBSE">     0</i>
   <v type="int" name="KPOINT">    -1     0     0     0</v>
   <i type="logical" name="LTCTE"> F  </i>
   <i type="logical" name="LTETE"> F  </i>
   <i type="logical" name="LTRIPLET"> F  </i>
   <i type="logical" name="LFXCEPS"> F  </i>
   <i type="logical" name="LFXHEG"> F  </i>
   <i type="int" name="NATURALO">     2</i>
   <i type="logical" name="L2ORDER"> F  </i>
   <i type="logical" name="LMP2LT"> F  </i>
   <i type="logical" name="LUSEW"> F  </i>
   <i name="ENCUTGW">     -2.00000000</i>
   <i name="ENCUTGWSOFT">     -2.00000000</i>
   <i name="ENCUTLF">     -1.00000000</i>
   <i type="int" name="LMAXMP2">    -1</i>
   <i name="SCISSOR">      0.00000000</i>
   <i type="int" name="NOMEGA">     0</i>
   <i type="int" name="NOMEGAR">     0</i>
   <i type="int" name="NBANDSGW">    -1</i>
   <i type="int" name="NBANDSO">    -1</i>
   <i type="int" name="NBANDSV">    -1</i>
   <i type="int" name="NELM">     1</i>
   <i type="int" name="NELMHF">     1</i>
   <i type="int" name="DIM">     3</i>
   <i type="int" name="ANTIRES">     0</i>
   <i name="OMEGAMAX">    -30.00000000</i>
   <i name="OMEGAMIN">    -30.00000000</i>
   <i name="OMEGATL">   -200.00000000</i>
   <i type="int" name="OMEGAGRID">   140</i>
   <i name="CSHIFT">     -0.10000000</i>
   <i type="logical" name="SELFENERGY"> F  </i>
   <i type="logical" name="LSPECTRAL"> F  </i>
   <i type="logical" name="LSPECTRALGW"> F  </i>
   <i type="logical" name="LSINGLES"> F  </i>
   <i type="logical" name="LFERMIGW"> F  </i>
   <i type="logical" name="ODDONLYGW"> F  </i>
   <i type="logical" name="EVENONLYGW"> F  </i>
   <i type="int" name="NKREDLFX">     1</i>
   <i type="int" name="NKREDLFY">     1</i>
   <i type="int" name="NKREDLFZ">     1</i>
   <i type="int" name="MAXMEM">  2800</i>
   <i type="int" name="TELESCOPE">     0</i>
   <i type="int" name="TAUPAR">     1</i>
   <i type="int" name="OMEGAPAR">    -1</i>
   <i name="LAMBDA">      1.00000000</i>
  </separator>
  <separator name="External order field" >
   <i name="OFIELD_KAPPA">      0.00000000</i>
   <v name="OFIELD_K">      0.00000000      0.00000000      0.00000000</v>
   <i name="OFIELD_Q6_NEAR">      0.00000000</i>
   <i name="OFIELD_Q6_FAR">      0.00000000</i>
   <i name="OFIELD_A">      0.00000000</i>
  </separator>
 </parameters>
 <atominfo>
  <atoms>       3 </atoms>
  <types>       2 </types>
  <array name="atoms" >
   <dimension dim="1">ion</dimension>
   <field type="string">element</field>
   <field type="int">atomtype</field>
   <set>
    <rc><c>Mo</c><c>   1</c></rc>
    <rc><c>S </c><c>   2</c></rc>
    <rc><c>S </c><c>   2</c></rc>
   </set>
  </array>
  <array name="atomtypes" >
   <dimension dim="1">type</dimension>
   <field type="int">atomspertype</field>
   <field type="string">element</field>
   <field>mass</field>
   <field>valence</field>
   <field type="string">pseudopotential</field>
   <set>
    <rc><c>   1</c><c>Mo</c><c>     95.94000000</c><c>      6.00000000</c><c> PAW_PBE Mo 08Apr2002                   </c></rc>
    <rc><c>   2</c><c>S </c><c>     32.06600000</c><c>      6.00000000</c><c>  PAW_PBE S 17Jan2003                   </c></rc>
   </set>
  </array>
 </atominfo>
 <structure name="initialpos" >
  <crystal>
   <varray name="basis" >
    <v>       3.19031573       0.00000000       0.00000000 </v>
    <v>      -1.59515786       2.76289447       0.00000000 </v>
    <v>       0.00000000       0.00000000      26.87900430 </v>
   </varray>
   <i name="volume">    236.92513614 </i>
   <varray name="rec_basis" >
    <v>       0.31344860       0.18096963       0.00000000 </v>
    <v>       0.00000000       0.36193927       0.00000000 </v>
    <v>       0.00000000       0.00000000       0.03720376 </v>
   </varray>
  </crystal>
  <varray name="positions" >
   <v>       0.33333300       0.66666700       0.13838872 </v>
   <v>       0.66666700       0.33333300       0.08016914 </v>
   <v>       0.66666600       0.33333300       0.19660830 </v>
  </varray>
 </structure>
 <calculation>
  <scstep>
   <time name="dav">    0.10    0.10</time>
   <time name="total">    0.12    0.18</time>
   <energy>
    <i name="alphaZ">     12.51390764 </i>
    <i name="ewald">   4286.25630342 </i>
    <i name="hartreedc">  -4967.71356794 </i>
    <i name="XCdc">    -36.31055464 </i>
    <i name="pawpsdc">    406.88651198 </i>
    <i name="pawaedc">   -329.34073203 </i>
    <i name="eentropy">     -0.04265735 </i>
    <i name="bandstr">    -43.33061685 </i>
    <i name="atom">    771.06857575 </i>
    <i name="e_fr_energy">     99.98716998 </i>
    <i name="e_wo_entrp">    100.02982733 </i>
    <i name="e_0_energy">    100.00849866 </i>
   </energy>
  </scstep>
  <scstep>
   <time name="dav">    0.14    0.15</time>
   <time name="total">    0.15    0.15</time>
   <energy>
    <i name="e_fr_energy">    -11.61404141 </i>
    <i name="e_wo_entrp">    -11.61404141 </i>
    <i name="e_0_energy">    -11.61404141 </i>
   </energy>
  </scstep>
  <scstep>
   <time name="dav">    0.12    0.12</time>
   <time name="total">    0.12    0.12</time>
   <energy>
    <i name="e_fr_energy">    -23.16429701 </i>
    <i name="e_wo_entrp">    -23.16429701 </i>
    <i name="e_0_energy">    -23.16429701 </i>
   </energy>
  </scstep>
  <scstep>
   <time name="dav">    0.11    0.11</time>
   <time name="total">    0.11    0.12</time>
   <energy>
    <i name="e_fr_energy">    -23.36490619 </i>
    <i name="e_wo_entrp">    -23.36490619 </i>
    <i name="e_0_energy">    -23.36490619 </i>
   </energy>
  </scstep>
  <scstep>
   <time name="dav">    0.11    0.11</time>
   <time name="total">    0.12    0.12</time>
   <energy>
    <i name="e_fr_energy">    -23.37064150 </i>
    <i name="e_wo_entrp">    -23.37064150 </i>
    <i name="e_0_energy">    -23.37064150 </i>
   </energy>
  </scstep>
  <scstep>
   <time name="diag">    0.02    0.02</time>
   <time name="diis">    0.06    0.06</time>
   <time name="orth">    0.00    0.00</time>
   <time name="total">    0.11    0.11</time>
   <energy>
    <i name="e_fr_energy">    -22.21224790 </i>
    <i name="e_wo_entrp">    -22.21224787 </i>
    <i name="e_0_energy">    -22.21224788 </i>
   </energy>
  </scstep>
  <scstep>
   <time name="diag">    0.02    0.02</time>
   <time name="diis">    0.06    0.06</time>
   <time name="orth">    0.00    0.00</time>
   <time name="total">    0.10    0.11</time>
   <energy>
    <i name="e_fr_energy">    -21.82859434 </i>
    <i name="e_wo_entrp">    -21.82859434 </i>
    <i name="e_0_energy">    -21.82859434 </i>
   </energy>
  </scstep>
  <scstep>
   <time name="diag">    0.02    0.02</time>
   <time name="diis">    0.06    0.06</time>
   <time name="orth">    0.00    0.00</time>
   <time name="total">    0.11    0.11</time>
   <energy>
    <i name="e_fr_energy">    -21.76851852 </i>
    <i name="e_wo_entrp">    -21.76851852 </i>
    <i name="e_0_energy">    -21.76851852 </i>
   </energy>
  </scstep>
  <scstep>
   <time name="diag">    0.02    0.02</time>
   <time name="diis">    0.07    0.07</time>
   <time name="orth">    0.00    0.00</time>
   <time name="total">    0.11    0.12</time>
   <energy>
    <i name="e_fr_energy">    -21.76383009 </i>
    <i name="e_wo_entrp">    -21.76383009 </i>
    <i name="e_0_energy">    -21.76383009 </i>
   </energy>
  </scstep>
  <scstep>
   <time name="diag">    0.02    0.02</time>
   <time name="diis">    0.07    0.07</time>
   <time name="orth">    0.00    0.00</time>
   <time name="total">    0.11    0.11</time>
   <energy>
    <i name="e_fr_energy">    -21.76314225 </i>
    <i name="e_wo_entrp">    -21.76314225 </i>
    <i name="e_0_energy">    -21.76314225 </i>
   </energy>
  </scstep>
  <scstep>
   <time name="diag">    0.02    0.02</time>
   <time name="diis">    0.07    0.07</time>
   <time name="orth">    0.00    0.00</time>
   <time name="total">    0.11    0.11</time>
   <energy>
    <i name="e_fr_energy">    -21.76314163 </i>
    <i name="e_wo_entrp">    -21.76314163 </i>
    <i name="e_0_energy">    -21.76314163 </i>
   </energy>
  </scstep>
  <scstep>
   <time name="diag">    0.02    0.02</time>
   <time name="diis">    0.06    0.06</time>
   <time name="orth">    0.00    0.00</time>
   <time name="total">    0.11    0.11</time>
   <energy>
    <i name="e_fr_energy">    -21.76305728 </i>
    <i name="e_wo_entrp">    -21.76305728 </i>
    <i name="e_0_energy">    -21.76305728 </i>
   </energy>
  </scstep>
  <scstep>
   <time name="diag">    0.02    0.02</time>
   <time name="diis">    0.06    0.06</time>
   <time name="orth">    0.00    0.00</time>
   <time name="total">    0.10    0.11</time>
   <energy>
    <i name="e_fr_energy">    -21.76350580 </i>
    <i name="e_wo_entrp">    -21.76350580 </i>
    <i name="e_0_energy">    -21.76350580 </i>
   </energy>
  </scstep>
  <scstep>
   <time name="diag">    0.02    0.02</time>
   <time name="diis">    0.07    0.07</time>
   <time name="orth">    0.00    0.00</time>
   <time name="total">    0.11    0.11</time>
   <energy>
    <i name="e_fr_energy">    -21.76356643 </i>
    <i name="e_wo_entrp">    -21.76356643 </i>
    <i name="e_0_energy">    -21.76356643 </i>
   </energy>
  </scstep>
  <scstep>
   <time name="diag">    0.02    0.02</time>
   <time name="diis">    0.06    0.06</time>
   <time name="orth">    0.00    0.00</time>
   <time name="total">    0.11    0.11</time>
   <energy>
    <i name="e_fr_energy">    -21.76368925 </i>
    <i name="e_wo_entrp">    -21.76368925 </i>
    <i name="e_0_energy">    -21.76368925 </i>
   </energy>
  </scstep>
  <scstep>
   <time name="diag">    0.02    0.02</time>
   <time name="diis">    0.05    0.05</time>
   <time name="orth">    0.00    0.00</time>
   <time name="total">    0.10    0.10</time>
   <energy>
    <i name="e_fr_energy">    -21.76372810 </i>
    <i name="e_wo_entrp">    -21.76372810 </i>
    <i name="e_0_energy">    -21.76372810 </i>
   </energy>
  </scstep>
  <scstep>
   <time name="diag">    0.02    0.02</time>
   <time name="diis">    0.05    0.05</time>
   <time name="orth">    0.00    0.00</time>
   <time name="total">    0.09    0.09</time>
   <energy>
    <i name="e_fr_energy">    -21.76376453 </i>
    <i name="e_wo_entrp">    -21.76376453 </i>
    <i name="e_0_energy">    -21.76376453 </i>
   </energy>
  </scstep>
  <scstep>
   <time name="diag">    0.02    0.02</time>
   <time name="diis">    0.05    0.05</time>
   <time name="orth">    0.00    0.00</time>
   <time name="total">    0.09    0.09</time>
   <energy>
    <i name="e_fr_energy">    -21.76376727 </i>
    <i name="e_wo_entrp">    -21.76376727 </i>
    <i name="e_0_energy">    -21.76376727 </i>
   </energy>
  </scstep>
  <scstep>
   <time name="diag">    0.02    0.02</time>
   <time name="diis">    0.05    0.05</time>
   <time name="orth">    0.00    0.00</time>
   <time name="total">    0.09    0.09</time>
   <energy>
    <i name="e_fr_energy">    -21.76377275 </i>
    <i name="e_wo_entrp">    -21.76377275 </i>
    <i name="e_0_energy">    -21.76377275 </i>
   </energy>
  </scstep>
  <scstep>
   <time name="diag">    0.02    0.02</time>
   <time name="diis">    0.04    0.04</time>
   <time name="orth">    0.00    0.00</time>
   <time name="total">    0.08    0.08</time>
   <energy>
    <i name="alphaZ">     12.51390764 </i>
    <i name="ewald">   4286.25630342 </i>
    <i name="hartreedc">  -4980.57689545 </i>
    <i name="XCdc">    -35.17212090 </i>
    <i name="pawpsdc">    478.68458778 </i>
    <i name="pawaedc">   -402.87562444 </i>
    <i name="eentropy">     -0.00000000 </i>
    <i name="bandstr">   -151.66250700 </i>
    <i name="atom">    771.06857575 </i>
    <i name="e_fr_energy">    -21.76377321 </i>
    <i name="e_wo_entrp">    -21.76377321 </i>
    <i name="e_0_energy">    -21.76377321 </i>
   </energy>
  </scstep>
  <structure>
   <crystal>
    <varray name="basis" >
     <v>       3.19031573       0.00000000       0.00000000 </v>
     <v>      -1.59515786       2.76289447       0.00000000 </v>
     <v>       0.00000000       0.00000000      26.87900430 </v>
    </varray>
    <i name="volume">    236.92513614 </i>
    <varray name="rec_basis" >
     <v>       0.31344860       0.18096963       0.00000000 </v>
     <v>       0.00000000       0.36193927       0.00000000 </v>
     <v>       0.00000000       0.00000000       0.03720376 </v>
    </varray>
   </crystal>
   <varray name="positions" >
    <v>       0.33333300       0.66666700       0.13838872 </v>
    <v>       0.66666700       0.33333300       0.08016914 </v>
    <v>       0.66666600       0.33333300       0.19660830 </v>
   </varray>
  </structure>
  <varray name="forces" >
   <v>      -0.00000000       0.00000000       0.00000000 </v>
   <v>       0.00000000       0.00000000       0.10376680 </v>
   <v>       0.00000000      -0.00000000      -0.10376680 </v>
  </varray>
  <varray name="stress" >
   <v>      -3.95262923      -0.00000000       0.00000000 </v>
   <v>      -0.00000000      -3.95262923       0.00000000 </v>
   <v>      -0.00000000       0.00000000      -5.87529857 </v>
  </varray>
  <energy>
   <i name="e_fr_energy">    -22.35468227 </i>
   <i name="e_wo_entrp">    -22.35468227 </i>
   <i name="e_0_energy">     -0.00000000 </i>
  </energy>
  <time name="totalsc">    2.48    3.12</time>
  <eigenvalues>
   <array>
    <dimension dim="1">band</dimension>
    <dimension dim="2">kpoint</dimension>
    <dimension dim="3">spin</dimension>
    <field>eigene</field>
    <field>occ</field>
    <set>
     <set comment="spin 1">
      <set comment="kpoint 1">
       <r>  -17.4731    1.0000 </r>
       <r>  -16.2648    1.0000 </r>
       <r>   -8.9831    1.0000 </r>
       <r>   -6.0211    1.0000 </r>
       <r>   -6.0208    1.0000 </r>
       <r>   -5.1614    1.0000 </r>
       <r>   -4.9140    1.0000 </r>
       <r>   -4.9136    1.0000 </r>
       <r>   -3.4389    1.0000 </r>
       <r>   -0.6647    0.0000 </r>
       <r>   -0.6639    0.0000 </r>
       <r>   -0.4426    0.0000 </r>
       <r>   -0.4419    0.0000 </r>
       <r>    1.9579    0.0000 </r>
      </set>
      <set comment="kpoint 2">
       <r>  -17.2591    1.0000 </r>
       <r>  -16.1623    1.0000 </r>
       <r>   -8.7381    1.0000 </r>
       <r>   -6.4855    1.0000 </r>
       <r>   -5.9685    1.0000 </r>
       <r>   -5.7868    1.0000 </r>
       <r>   -5.2501    1.0000 </r>
       <r>   -4.4825    1.0000 </r>
       <r>   -3.5778    1.0000 </r>
       <r>   -0.9475    0.0000 </r>
       <r>   -0.8807    0.0000 </r>
       <r>   -0.6792    0.0000 </r>
       <r>   -0.3106    0.0000 </r>
       <r>    2.3222    0.0000 </r>
      </set>
      <set comment="kpoint 3">
       <r>  -16.6905    1.0000 </r>
       <r>  -15.8934    1.0000 </r>
       <r>   -8.3723    1.0000 </r>
       <r>   -7.2137    1.0000 </r>
       <r>   -6.9500    1.0000 </r>
       <r>   -5.8868    1.0000 </r>
       <r>   -5.2010    1.0000 </r>
       <r>   -4.7345    1.0000 </r>
       <r>   -4.1463    1.0000 </r>
       <r>   -1.2717    0.0000 </r>
       <r>   -1.0966    0.0000 </r>
       <r>   -0.5534    0.0000 </r>
       <r>    0.3045    0.0000 </r>
       <r>    3.1490    0.0000 </r>
      </set>
      <set comment="kpoint 4">
       <r>  -16.0156    1.0000 </r>
       <r>  -15.5849    1.0000 </r>
       <r>   -8.8114    1.0000 </r>
       <r>   -7.8189    1.0000 </r>
       <r>   -7.3449    1.0000 </r>
       <r>   -6.3854    1.0000 </r>
       <r>   -5.1434    1.0000 </r>
       <r>   -4.6112    1.0000 </r>
       <r>   -4.3405    1.0000 </r>
       <r>   -1.2791    0.0000 </r>
       <r>   -0.9994    0.0000 </r>
       <r>    0.1654    0.0000 </r>
       <r>    0.6970    0.0000 </r>
       <r>    3.7217    0.0000 </r>
      </set>
      <set comment="kpoint 5">
       <r>  -15.6873    1.0000 </r>
       <r>  -15.4415    1.0000 </r>
       <r>   -9.1445    1.0000 </r>
       <r>   -8.1849    1.0000 </r>
       <r>   -7.4704    1.0000 </r>
       <r>   -6.5660    1.0000 </r>
       <r>   -5.2820    1.0000 </r>
       <r>   -4.3840    1.0000 </r>
       <r>   -4.0589    1.0000 </r>
       <r>   -1.2574    0.0000 </r>
       <r>   -0.7429    0.0000 </r>
       <r>    0.4652    0.0000 </r>
       <r>    0.8129    0.0000 </r>
       <r>    2.7672    0.0000 </r>
      </set>
      <set comment="kpoint 6">
       <r>  -16.8664    1.0000 </r>
       <r>  -15.9752    1.0000 </r>
       <r>   -8.3906    1.0000 </r>
       <r>   -7.0509    1.0000 </r>
       <r>   -6.5312    1.0000 </r>
       <r>   -6.0645    1.0000 </r>
       <r>   -5.4484    1.0000 </r>
       <r>   -4.3478    1.0000 </r>
       <r>   -3.9505    1.0000 </r>
       <r>   -1.3468    0.0000 </r>
       <r>   -0.9692    0.0000 </r>
       <r>   -0.9571    0.0000 </r>
       <r>    0.2836    0.0000 </r>
       <r>    2.9165    0.0000 </r>
      </set>
      <set comment="kpoint 7">
       <r>  -16.2330    1.0000 </r>
       <r>  -15.6766    1.0000 </r>
       <r>   -8.4549    1.0000 </r>
       <r>   -7.4773    1.0000 </r>
       <r>   -7.2140    1.0000 </r>
       <r>   -6.5698    1.0000 </r>
       <r>   -5.3493    1.0000 </r>
       <r>   -4.7106    1.0000 </r>
       <r>   -4.2342    1.0000 </r>
       <r>   -1.4305    0.0000 </r>
       <r>   -0.9837    0.0000 </r>
       <r>   -0.4869    0.0000 </r>
       <r>    0.7891    0.0000 </r>
       <r>    3.9073    0.0000 </r>
      </set>
      <set comment="kpoint 8">
       <r>  -15.7026    1.0000 </r>
       <r>  -15.4326    1.0000 </r>
       <r>   -8.8570    1.0000 </r>
       <r>   -8.2409    1.0000 </r>
       <r>   -7.3430    1.0000 </r>
       <r>   -6.5874    1.0000 </r>
       <r>   -5.3342    1.0000 </r>
       <r>   -5.1921    1.0000 </r>
       <r>   -3.9075    1.0000 </r>
       <r>   -1.2385    0.0000 </r>
       <r>   -0.7284    0.0000 </r>
       <r>    0.1368    0.0000 </r>
       <r>    0.8229    0.0000 </r>
       <r>    3.2922    0.0000 </r>
      </set>
      <set comment="kpoint 9">
       <r>  -15.7176    1.0000 </r>
       <r>  -15.4237    1.0000 </r>
       <r>   -8.4960    1.0000 </r>
       <r>   -8.2907    1.0000 </r>
       <r>   -7.0164    1.0000 </r>
       <r>   -6.6356    1.0000 </r>
       <r>   -6.3165    1.0000 </r>
       <r>   -5.0589    1.0000 </r>
       <r>   -3.9372    1.0000 </r>
       <r>   -1.2894    0.0000 </r>
       <r>   -0.6776    0.0000 </r>
       <r>   -0.3609    0.0000 </r>
       <r>    1.1073    0.0000 </r>
       <r>    4.1234    0.0000 </r>
      </set>
      <set comment="kpoint 10">
       <r>  -15.4826    1.0000 </r>
       <r>  -15.3046    1.0000 </r>
       <r>   -8.6755    1.0000 </r>
       <r>   -8.3267    1.0000 </r>
       <r>   -7.2999    1.0000 </r>
       <r>   -6.6377    1.0000 </r>
       <r>   -6.4096    1.0000 </r>
       <r>   -5.4444    1.0000 </r>
       <r>   -3.5697    1.0000 </r>
       <r>   -1.6156    0.0000 </r>
       <r>   -0.2997    0.0000 </r>
       <r>   -0.1281    0.0000 </r>
       <r>    1.2505    0.0000 </r>
       <r>    3.5372    0.0000 </r>
      </set>
     </set>
    </set>
   </array>
  </eigenvalues>
  <separator name="orbital magnetization" >
   <v name="MAGDIPOLOUT">      0.00000000      0.00000000      0.00000000</v>
  </separator>
  <dos>
   <i name="efermi">     -2.61000000 </i>
   <total>
    <array>
     <dimension dim="1">gridpoints</dimension>
     <dimension dim="2">spin</dimension>
     <field>energy</field>
     <field>total</field>
     <field>integrated</field>
     <set>
      <set comment="spin 1">
       <r>   -12.0000   400.0000     4.0000 </r>
       <r>   -11.9900     0.0000     4.0000 </r>
       <r>   -11.9800     0.0000     4.0000 </r>
       <r>   -11.9700     0.0000     4.0000 </r>
       <r>   -11.9600     0.0000     4.0000 </r>
       <r>   -11.9500     0.0000     4.0000 </r>
       <r>   -11.9400     0.0000     4.0000 </r>
       <r>   -11.9300     0.0000     4.0000 </r>
       <r>   -11.9200     0.0000     4.0000 </r>
       <r>   -11.9100     0.0000     4.0000 </r>
       <r>   -11.9000     0.0000     4.0000 </r>
       <r>   -11.8900     0.0000     4.0000 </r>
       <r>   -11.8800     0.0000     4.0000 </r>
       <r>   -11.8700     0.0000     4.0000 </r>
       <r>   -11.8600     0.0000     4.0000 </r>
       <r>   -11.8500     0.0000     4.0000 </r>
       <r>   -11.8400     0.0000     4.0000 </r>
       <r>   -11.8300     0.0000     4.0000 </r>
       <r>   -11.8200     0.0000     4.0000 </r>
       <r>   -11.8100     0.0000     4.0000 </r>
       <r>   -11.8000     0.0000     4.0000 </r>
       <r>   -11.7900     0.0000     4.0000 </r>
       <r>   -11.7800     0.0000     4.0000 </r>
       <r>   -11.7700     0.0000     4.0000 </r>
       <r>   -11.7600     0.0000     4.0000 </r>
       <r>   -11.7500     0.0000     4.0000 </r>
       <r>   -11.7400     0.0000     4.0000 </r>
       <r>   -11.7300     0.0000     4.0000 </r>
       <r>   -11.7200     0.0000     4.0000 </r>
       <r>   -11.7100     0.0000     4.0000 </r>
       <r>   -11.7000     0.0000     4.0000 </r>
       <r>   -11.6900     0.0000     4.0000 </r>
       <r>   -11.6800     0.0000     4.0000 </r>
       <r>   -11.6700     0.0000     4.0000 </r>
       <r>   -11.6600     0.0000     4.0000 </r>
       <r>   -11.6500     0.0000     4.0000 </r>
       <r>   -11.6400     0.0000     4.0000 </r>
       <r>   -11.6300     0.0000     4.0000 </r>
       <r>   -11.6200     0.0000     4.0000 </r>
       <r>   -11.6100     0.0000     4.0000 </r>
       <r>   -11.6000     0.0000     4.0000 </r>
       <r>   -11.5900     0.0000     4.0000 </r>
       <r>   -11.5800     0.0000     4.0000 </r>
       <r>   -11.5700     0.0000     4.0000 </r>
       <r>   -11.5600     0.0000     4.0000 </r>
       <r>   -11.5500     0.0000     4.0000 </r>
       <r>   -11.5400     0.0000     4.0000 </r>
       <r>   -11.5300     0.0000     4.0000 </r>
       <r>   -11.5200     0.0000     4.0000 </r>
       <r>   -11.5100     0.0000     4.0000 </r>
       <r>   -11.5000     0.0000     4.0000 </r>
       <r>   -11.4900     0.0000     4.0000 </r>
       <r>   -11.4800     0.0000     4.0000 </r>
       <r>   -11.4700     0.0000     4.0000 </r>
       <r>   -11.4600     0.0000     4.0000 </r>
       <r>   -11.4500     0.0000     4.0000 </r>
       <r>   -11.4400     0.0000     4.0000 </r>
       <r>   -11.4300     0.0000     4.0000 </r>
       <r>   -11.4200     0.0000     4.0000 </r>
       <r>   -11.4100     0.0000     4.0000 </r>
       <r>   -11.4000     0.0000     4.0000 </r>
       <r>   -11.3900     0.0000     4.0000 </r>
       <r>   -11.3800     0.0000     4.0000 </r>
       <r>   -11.3700     0.0000     4.0000 </r>
       <r>   -11.3600     0.0000     4.0000 </r>
       <r>   -11.3500     0.0000     4.0000 </r>
       <r>   -11.3400     0.0000     4.0000 </r>
       <r>   -11.3300     0.0000     4.0000 </r>
       <r>   -11.3200     0.0000     4.0000 </r>
       <r>   -11.3100     0.0000     4.0000 </r>
       <r>   -11.3000     0.0000     4.0000 </r>
       <r>   -11.2900     0.0000     4.0000 </r>
       <r>   -11.2800     0.0000     4.0000 </r>
       <r>   -11.2700     0.0000     4.0000 </r>
       <r>   -11.2600     0.0000     4.0000 </r>
       <r>   -11.2500     0.0000     4.0000 </r>
       <r>   -11.2400     0.0000     4.0000 </r>
       <r>   -11.2300     0.0000     4.0000 </r>
       <r>   -11.2200     0.0000     4.0000 </r>
       <r>   -11.2100     0.0000     4.0000 </r>
       <r>   -11.2000     0.0000     4.0000 </r>
       <r>   -11.1900     0.0000     4.0000 </r>
       <r>   -11.1800     0.0000     4.0000 </r>
       <r>   -11.1700     0.0000     4.0000 </r>
       <r>   -11.1600     0.0000     4.0000 </r>
       <r>   -11.1500     0.0000     4.0000 </r>
       <r>   -11.1400     0.0000     4.0000 </r>
       <r>   -11.1300     0.0000     4.0000 </r>
       <r>   -11.1200     0.0000     4.0000 </r>
       <r>   -11.1100     0.0000     4.0000 </r>
       <r>   -11.1000     0.0000     4.0000 </r>
       <r>   -11.0900     0.0000     4.0000 </r>
       <r>   -11.0800     0.0000     4.0000 </r>
       <r>   -11.0700     0.0000     4.0000 </r>
       <r>   -11.0600     0.0000     4.0000 </r>
       <r>   -11.0500     0.0000     4.0000 </r>
       <r>   -11.0400     0.0000     4.0000 </r>
       <r>   -11.0300     0.0000     4.0000 </r>
       <r>   -11.0200     0.0000     4.0000 </r>
       <r>   -11.0100     0.0000     4.0000 </r>
       <r>   -11.0000     0.0000     4.0000 </r>
       <r>   -10.9900     0.0000     4.0000 </r>
       <r>   -10.9800     0.0000     4.0000 </r>
       <r>   -10.9700     0.0000     4.0000 </r>
       <r>   -10.9600     0.0000     4.0000 </r>
       <r>   -10.9500     0.0000     4.0000 </r>
       <r>   -10.9400     0.0000     4.0000 </r>
       <r>   -10.9300     0.0000     4.0000 </r>
       <r>   -10.9200     0.0000     4.0000 </r>
       <r>   -10.9100     0.0000     4.0000 </r>
       <r>   -10.9000     0.0000     4.0000 </r>
       <r>   -10.8900     0.0000     4.0000 </r>
       <r>   -10.8800     0.0000     4.0000 </r>
       <r>   -10.8700     0.0000     4.0000 </r>
       <r>   -10.8600     0.0000     4.0000 </r>
       <r>   -10.8500     0.0000     4.0000 </r>
       <r>   -10.8400     0.0000     4.0000 </r>
       <r>   -10.8300     0.0000     4.0000 </r>
       <r>   -10.8200     0.0000     4.0000 </r>
       <r>   -10.8100     0.0000     4.0000 </r>
       <r>   -10.8000     0.0000     4.0000 </r>
       <r>   -10.7900     0.0000     4.0000 </r>
       <r>   -10.7800     0.0000     4.0000 </r>
       <r>   -10.7700     0.0000     4.0000 </r>
       <r>   -10.7600     0.0000     4.0000 </r>
       <r>   -10.7500     0.0000     4.0000 </r>
       <r>   -10.7400     0.0000     4.0000 </r>
       <r>   -10.7300     0.0000     4.0000 </r>
       <r>   -10.7200     0.0000     4.0000 </r>
       <r>   -10.7100     0.0000     4.0000 </r>
       <r>   -10.7000     0.0000     4.0000 </r>
       <r>   -10.6900     0.0000     4.0000 </r>
       <r>   -10.6800     0.0000     4.0000 </r>
       <r>   -10.6700     0.0000     4.0000 </r>
       <r>   -10.6600     0.0000     4.0000 </r>
       <r>   -10.6500     0.0000     4.0000 </r>
       <r>   -10.6400     0.0000     4.0000 </r>
       <r>   -10.6300     0.0000     4.0000 </r>
       <r>   -10.6200     0.0000     4.0000 </r>
       <r>   -10.6100     0.0000     4.0000 </r>
       <r>   -10.6000     0.0000     4.0000 </r>
       <r>   -10.5900     0.0000     4.0000 </r>
       <r>   -10.5800     0.0000     4.0000 </r>
       <r>   -10.5700     0.0000     4.0000 </r>
       <r>   -10.5600     0.0000     4.0000 </r>
       <r>   -10.5500     0.0000     4.0000 </r>
       <r>   -10.5400     0.0000     4.0000 </r>
       <r>   -10.5300     0.0000     4.0000 </r>
       <r>   -10.5200     0.0000     4.0000 </r>
       <r>   -10.5100     0.0000     4.0000 </r>
       <r>   -10.5000     0.0000     4.0000 </r>
       <r>   -10.4900     0.0000     4.0000 </r>
       <r>   -10.4800     0.0000     4.0000 </r>
       <r>   -10.4700     0.0000     4.0000 </r>
       <r>   -10.4600     0.0000     4.0000 </r>
       <r>   -10.4500     0.0000     4.0000 </r>
       <r>   -10.4400     0.0000     4.0000 </r>
       <r>   -10.4300     0.0000     4.0000 </r>
       <r>   -10.4200     0.0000     4.0000 </r>
       <r>   -10.4100     0.0000     4.0000 </r>
       <r>   -10.4000     0.0000     4.0000 </r>
       <r>   -10.3900     0.0000     4.0000 </r>
       <r>   -10.3800     0.0000     4.0000 </r>
       <r>   -10.3700     0.0000     4.0000 </r>
       <r>   -10.3600     0.0000     4.0000 </r>
       <r>   -10.3500     0.0000     4.0000 </r>
       <r>   -10.3400     0.0000     4.0000 </r>
       <r>   -10.3300     0.0000     4.0000 </r>
       <r>   -10.3200     0.0000     4.0000 </r>
       <r>   -10.3100     0.0000     4.0000 </r>
       <r>   -10.3000     0.0000     4.0000 </r>
       <r>   -10.2900     0.0000     4.0000 </r>
       <r>   -10.2800     0.0000     4.0000 </r>
       <r>   -10.2700     0.0000     4.0000 </r>
       <r>   -10.2600     0.0000     4.0000 </r>
       <r>   -10.2500     0.0000     4.0000 </r>
       <r>   -10.2400     0.0000     4.0000 </r>
       <r>   -10.2300     0.0000     4.0000 </r>
       <r>   -10.2200     0.0000     4.0000 </r>
       <r>   -10.2100     0.0000     4.0000 </r>
       <r>   -10.2000     0.0000     4.0000 </r>
       <r>   -10.1900     0.0000     4.0000 </r>
       <r>   -10.1800     0.0000     4.0000 </r>
       <r>   -10.1700     0.0000     4.0000 </r>
       <r>   -10.1600     0.0000     4.0000 </r>
       <r>   -10.1500     0.0000     4.0000 </r>
       <r>   -10.1400     0.0000     4.0000 </r>
       <r>   -10.1300     0.0000     4.0000 </r>
       <r>   -10.1200     0.0000     4.0000 </r>
       <r>   -10.1100     0.0000     4.0000 </r>
       <r>   -10.1000     0.0000     4.0000 </r>
       <r>   -10.0900     0.0000     4.0000 </r>
       <r>   -10.0800     0.0000     4.0000 </r>
       <r>   -10.0700     0.0000     4.0000 </r>
       <r>   -10.0600     0.0000     4.0000 </r>
       <r>   -10.0500     0.0000     4.0000 </r>
       <r>   -10.0400     0.0000     4.0000 </r>
       <r>   -10.0300     0.0000     4.0000 </r>
       <r>   -10.0200     0.0000     4.0000 </r>
       <r>   -10.0100     0.0000     4.0000 </r>
       <r>   -10.0000     0.0000     4.0000 </r>
       <r>    -9.9900     0.0000     4.0000 </r>
       <r>    -9.9800     0.0000     4.0000 </r>
       <r>    -9.9700     0.0000     4.0000 </r>
       <r>    -9.9600     0.0000     4.0000 </r>
       <r>    -9.9500     0.0000     4.0000 </r>
       <r>    -9.9400     0.0000     4.0000 </r>
       <r>    -9.9300     0.0000     4.0000 </r>
       <r>    -9.9200     0.0000     4.0000 </r>
       <r>    -9.9100     0.0000     4.0000 </r>
       <r>    -9.9000     0.0000     4.0000 </r>
       <r>    -9.8900     0.0000     4.0000 </r>
       <r>    -9.8800     0.0000     4.0000 </r>
       <r>    -9.8700     0.0000     4.0000 </r>
       <r>    -9.8600     0.0000     4.0000 </r>
       <r>    -9.8500     0.0000     4.0000 </r>
       <r>    -9.8400     0.0000     4.0000 </r>
       <r>    -9.8300     0.0000     4.0000 </r>
       <r>    -9.8200     0.0000     4.0000 </r>
       <r>    -9.8100     0.0000     4.0000 </r>
       <r>    -9.8000     0.0000     4.0000 </r>
       <r>    -9.7900     0.0000     4.0000 </r>
       <r>    -9.7800     0.0000     4.0000 </r>
       <r>    -9.7700     0.0000     4.0000 </r>
       <r>    -9.7600     0.0000     4.0000 </r>
       <r>    -9.7500     0.0000     4.0000 </r>
       <r>    -9.7400     0.0000     4.0000 </r>
       <r>    -9.7300     0.0000     4.0000 </r>
       <r>    -9.7200     0.0001     4.0000 </r>
       <r>    -9.7100     0.0001     4.0000 </r>
       <r>    -9.7000     0.0001     4.0000 </r>
       <r>    -9.6900     0.0001     4.0000 </r>
       <r>    -9.6800     0.0002     4.0000 </r>
       <r>    -9.6700     0.0002     4.0000 </r>
       <r>    -9.6600     0.0003     4.0000 </r>
       <r>    -9.6500     0.0004     4.0000 </r>
       <r>    -9.6400     0.0005     4.0000 </r>
       <r>    -9.6300     0.0006     4.0000 </r>
       <r>    -9.6200     0.0008     4.0000 </r>
       <r>    -9.6100     0.0011     4.0000 </r>
       <r>    -9.6000     0.0013     4.0001 </r>
       <r>    -9.5900     0.0017     4.0001 </r>
       <r>    -9.5800     0.0021     4.0001 </r>
       <r>    -9.5700     0.0026     4.0001 </r>
       <r>    -9.5600     0.0032     4.0002 </r>
       <r>    -9.5500     0.0040     4.0002 </r>
       <r>    -9.5400     0.0048     4.0002 </r>
       <r>    -9.5300     0.0059     4.0003 </r>
       <r>    -9.5200     0.0072     4.0004 </r>
       <r>    -9.5100     0.0087     4.0005 </r>
       <r>    -9.5000     0.0104     4.0006 </r>
       <r>    -9.4900     0.0124     4.0007 </r>
       <r>    -9.4800     0.0148     4.0008 </r>
       <r>    -9.4700     0.0175     4.0010 </r>
       <r>    -9.4600     0.0207     4.0012 </r>
       <r>    -9.4500     0.0243     4.0015 </r>
       <r>    -9.4400     0.0283     4.0017 </r>
       <r>    -9.4300     0.0329     4.0021 </r>
       <r>    -9.4200     0.0381     4.0025 </r>
       <r>    -9.4100     0.0438     4.0029 </r>
       <r>    -9.4000     0.0502     4.0034 </r>
       <r>    -9.3900     0.0573     4.0040 </r>
       <r>    -9.3800     0.0650     4.0046 </r>
       <r>    -9.3700     0.0735     4.0054 </r>
       <r>    -9.3600     0.0827     4.0062 </r>
       <r>    -9.3500     0.0927     4.0071 </r>
       <r>    -9.3400     0.1034     4.0081 </r>
       <r>    -9.3300     0.1149     4.0093 </r>
       <r>    -9.3200     0.1272     4.0106 </r>
       <r>    -9.3100     0.1402     4.0120 </r>
       <r>    -9.3000     0.1539     4.0135 </r>
       <r>    -9.2900     0.1684     4.0152 </r>
       <r>    -9.2800     0.1837     4.0170 </r>
       <r>    -9.2700     0.1996     4.0190 </r>
       <r>    -9.2600     0.2163     4.0212 </r>
       <r>    -9.2500     0.2336     4.0235 </r>
       <r>    -9.2400     0.2517     4.0260 </r>
       <r>    -9.2300     0.2706     4.0287 </r>
       <r>    -9.2200     0.2902     4.0316 </r>
       <r>    -9.2100     0.3107     4.0348 </r>
       <r>    -9.2000     0.3321     4.0381 </r>
       <r>    -9.1900     0.3546     4.0416 </r>
       <r>    -9.1800     0.3781     4.0454 </r>
       <r>    -9.1700     0.4029     4.0494 </r>
       <r>    -9.1600     0.4292     4.0537 </r>
       <r>    -9.1500     0.4571     4.0583 </r>
       <r>    -9.1400     0.4867     4.0632 </r>
       <r>    -9.1300     0.5184     4.0683 </r>
       <r>    -9.1200     0.5523     4.0739 </r>
       <r>    -9.1100     0.5886     4.0798 </r>
       <r>    -9.1000     0.6276     4.0860 </r>
       <r>    -9.0900     0.6695     4.0927 </r>
       <r>    -9.0800     0.7144     4.0999 </r>
       <r>    -9.0700     0.7625     4.1075 </r>
       <r>    -9.0600     0.8140     4.1156 </r>
       <r>    -9.0500     0.8690     4.1243 </r>
       <r>    -9.0400     0.9274     4.1336 </r>
       <r>    -9.0300     0.9893     4.1435 </r>
       <r>    -9.0200     1.0545     4.1540 </r>
       <r>    -9.0100     1.1231     4.1653 </r>
       <r>    -9.0000     1.1946     4.1772 </r>
       <r>    -8.9900     1.2689     4.1899 </r>
       <r>    -8.9800     1.3456     4.2034 </r>
       <r>    -8.9700     1.4243     4.2176 </r>
       <r>    -8.9600     1.5045     4.2326 </r>
       <r>    -8.9500     1.5856     4.2485 </r>
       <r>    -8.9400     1.6671     4.2652 </r>
       <r>    -8.9300     1.7483     4.2827 </r>
       <r>    -8.9200     1.8286     4.3009 </r>
       <r>    -8.9100     1.9073     4.3200 </r>
       <r>    -8.9000     1.9837     4.3398 </r>
       <r>    -8.8900     2.0572     4.3604 </r>
       <r>    -8.8800     2.1272     4.3817 </r>
       <r>    -8.8700     2.1930     4.4036 </r>
       <r>    -8.8600     2.2542     4.4262 </r>
       <r>    -8.8500     2.3103     4.4493 </r>
       <r>    -8.8400     2.3609     4.4729 </r>
       <r>    -8.8300     2.4059     4.4969 </r>
       <r>    -8.8200     2.4449     4.5214 </r>
       <r>    -8.8100     2.4779     4.5462 </r>
       <r>    -8.8000     2.5051     4.5712 </r>
       <r>    -8.7900     2.5266     4.5965 </r>
       <r>    -8.7800     2.5426     4.6219 </r>
       <r>    -8.7700     2.5536     4.6474 </r>
       <r>    -8.7600     2.5601     4.6730 </r>
       <r>    -8.7500     2.5627     4.6987 </r>
       <r>    -8.7400     2.5620     4.7243 </r>
       <r>    -8.7300     2.5589     4.7499 </r>
       <r>    -8.7200     2.5541     4.7754 </r>
       <r>    -8.7100     2.5485     4.8009 </r>
       <r>    -8.7000     2.5430     4.8263 </r>
       <r>    -8.6900     2.5386     4.8517 </r>
       <r>    -8.6800     2.5359     4.8771 </r>
       <r>    -8.6700     2.5360     4.9024 </r>
       <r>    -8.6600     2.5397     4.9278 </r>
       <r>    -8.6500     2.5476     4.9533 </r>
       <r>    -8.6400     2.5604     4.9789 </r>
       <r>    -8.6300     2.5786     5.0047 </r>
       <r>    -8.6200     2.6028     5.0307 </r>
       <r>    -8.6100     2.6333     5.0571 </r>
       <r>    -8.6000     2.6702     5.0838 </r>
       <r>    -8.5900     2.7136     5.1109 </r>
       <r>    -8.5800     2.7636     5.1385 </r>
       <r>    -8.5700     2.8197     5.1667 </r>
       <r>    -8.5600     2.8818     5.1956 </r>
       <r>    -8.5500     2.9494     5.2250 </r>
       <r>    -8.5400     3.0219     5.2553 </r>
       <r>    -8.5300     3.0986     5.2863 </r>
       <r>    -8.5200     3.1788     5.3180 </r>
       <r>    -8.5100     3.2614     5.3507 </r>
       <r>    -8.5000     3.3457     5.3841 </r>
       <r>    -8.4900     3.4306     5.4184 </r>
       <r>    -8.4800     3.5151     5.4536 </r>
       <r>    -8.4700     3.5981     5.4896 </r>
       <r>    -8.4600     3.6786     5.5263 </r>
       <r>    -8.4500     3.7554     5.5639 </r>
       <r>    -8.4400     3.8277     5.6022 </r>
       <r>    -8.4300     3.8944     5.6411 </r>
       <r>    -8.4200     3.9545     5.6807 </r>
       <r>    -8.4100     4.0072     5.7207 </r>
       <r>    -8.4000     4.0518     5.7612 </r>
       <r>    -8.3900     4.0874     5.8021 </r>
       <r>    -8.3800     4.1136     5.8433 </r>
       <r>    -8.3700     4.1297     5.8846 </r>
       <r>    -8.3600     4.1354     5.9259 </r>
       <r>    -8.3500     4.1304     5.9672 </r>
       <r>    -8.3400     4.1144     6.0084 </r>
       <r>    -8.3300     4.0874     6.0492 </r>
       <r>    -8.3200     4.0494     6.0897 </r>
       <r>    -8.3100     4.0005     6.1297 </r>
       <r>    -8.3000     3.9410     6.1691 </r>
       <r>    -8.2900     3.8712     6.2079 </r>
       <r>    -8.2800     3.7915     6.2458 </r>
       <r>    -8.2700     3.7025     6.2828 </r>
       <r>    -8.2600     3.6048     6.3188 </r>
       <r>    -8.2500     3.4991     6.3538 </r>
       <r>    -8.2400     3.3861     6.3877 </r>
       <r>    -8.2300     3.2666     6.4204 </r>
       <r>    -8.2200     3.1417     6.4518 </r>
       <r>    -8.2100     3.0121     6.4819 </r>
       <r>    -8.2000     2.8788     6.5107 </r>
       <r>    -8.1900     2.7429     6.5381 </r>
       <r>    -8.1800     2.6054     6.5642 </r>
       <r>    -8.1700     2.4671     6.5888 </r>
       <r>    -8.1600     2.3291     6.6121 </r>
       <r>    -8.1500     2.1924     6.6341 </r>
       <r>    -8.1400     2.0578     6.6546 </r>
       <r>    -8.1300     1.9263     6.6739 </r>
       <r>    -8.1200     1.7986     6.6919 </r>
       <r>    -8.1100     1.6755     6.7086 </r>
       <r>    -8.1000     1.5576     6.7242 </r>
       <r>    -8.0900     1.4455     6.7387 </r>
       <r>    -8.0800     1.3398     6.7521 </r>
       <r>    -8.0700     1.2409     6.7645 </r>
       <r>    -8.0600     1.1490     6.7760 </r>
       <r>    -8.0500     1.0644     6.7866 </r>
       <r>    -8.0400     0.9872     6.7965 </r>
       <r>    -8.0300     0.9175     6.8057 </r>
       <r>    -8.0200     0.8553     6.8142 </r>
       <r>    -8.0100     0.8003     6.8222 </r>
       <r>    -8.0000     0.7524     6.8297 </r>
       <r>    -7.9900     0.7113     6.8368 </r>
       <r>    -7.9800     0.6766     6.8436 </r>
       <r>    -7.9700     0.6480     6.8501 </r>
       <r>    -7.9600     0.6250     6.8563 </r>
       <r>    -7.9500     0.6072     6.8624 </r>
       <r>    -7.9400     0.5940     6.8684 </r>
       <r>    -7.9300     0.5849     6.8742 </r>
       <r>    -7.9200     0.5794     6.8800 </r>
       <r>    -7.9100     0.5770     6.8858 </r>
       <r>    -7.9000     0.5771     6.8915 </r>
       <r>    -7.8900     0.5794     6.8973 </r>
       <r>    -7.8800     0.5834     6.9032 </r>
       <r>    -7.8700     0.5886     6.9091 </r>
       <r>    -7.8600     0.5949     6.9150 </r>
       <r>    -7.8500     0.6018     6.9210 </r>
       <r>    -7.8400     0.6092     6.9271 </r>
       <r>    -7.8300     0.6170     6.9333 </r>
       <r>    -7.8200     0.6251     6.9395 </r>
       <r>    -7.8100     0.6334     6.9459 </r>
       <r>    -7.8000     0.6422     6.9523 </r>
       <r>    -7.7900     0.6515     6.9588 </r>
       <r>    -7.7800     0.6616     6.9654 </r>
       <r>    -7.7700     0.6728     6.9721 </r>
       <r>    -7.7600     0.6853     6.9790 </r>
       <r>    -7.7500     0.6996     6.9860 </r>
       <r>    -7.7400     0.7162     6.9932 </r>
       <r>    -7.7300     0.7354     7.0005 </r>
       <r>    -7.7200     0.7577     7.0081 </r>
       <r>    -7.7100     0.7837     7.0159 </r>
       <r>    -7.7000     0.8137     7.0241 </r>
       <r>    -7.6900     0.8483     7.0325 </r>
       <r>    -7.6800     0.8878     7.0414 </r>
       <r>    -7.6700     0.9326     7.0508 </r>
       <r>    -7.6600     0.9831     7.0606 </r>
       <r>    -7.6500     1.0395     7.0710 </r>
       <r>    -7.6400     1.1021     7.0820 </r>
       <r>    -7.6300     1.1709     7.0937 </r>
       <r>    -7.6200     1.2459     7.1062 </r>
       <r>    -7.6100     1.3273     7.1194 </r>
       <r>    -7.6000     1.4148     7.1336 </r>
       <r>    -7.5900     1.5082     7.1487 </r>
       <r>    -7.5800     1.6073     7.1647 </r>
       <r>    -7.5700     1.7118     7.1819 </r>
       <r>    -7.5600     1.8211     7.2001 </r>
       <r>    -7.5500     1.9348     7.2194 </r>
       <r>    -7.5400     2.0522     7.2399 </r>
       <r>    -7.5300     2.1729     7.2617 </r>
       <r>    -7.5200     2.2961     7.2846 </r>
       <r>    -7.5100     2.4210     7.3088 </r>
       <r>    -7.5000     2.5471     7.3343 </r>
       <r>    -7.4900     2.6733     7.3610 </r>
       <r>    -7.4800     2.7991     7.3890 </r>
       <r>    -7.4700     2.9236     7.4183 </r>
       <r>    -7.4600     3.0459     7.4487 </r>
       <r>    -7.4500     3.1654     7.4804 </r>
       <r>    -7.4400     3.2812     7.5132 </r>
       <r>    -7.4300     3.3926     7.5471 </r>
       <r>    -7.4200     3.4988     7.5821 </r>
       <r>    -7.4100     3.5992     7.6181 </r>
       <r>    -7.4000     3.6931     7.6550 </r>
       <r>    -7.3900     3.7800     7.6928 </r>
       <r>    -7.3800     3.8593     7.7314 </r>
       <r>    -7.3700     3.9305     7.7707 </r>
       <r>    -7.3600     3.9932     7.8107 </r>
       <r>    -7.3500     4.0470     7.8511 </r>
       <r>    -7.3400     4.0918     7.8921 </r>
       <r>    -7.3300     4.1273     7.9333 </r>
       <r>    -7.3200     4.1535     7.9749 </r>
       <r>    -7.3100     4.1703     8.0166 </r>
       <r>    -7.3000     4.1778     8.0583 </r>
       <r>    -7.2900     4.1761     8.1001 </r>
       <r>    -7.2800     4.1656     8.1418 </r>
       <r>    -7.2700     4.1464     8.1832 </r>
       <r>    -7.2600     4.1191     8.2244 </r>
       <r>    -7.2500     4.0840     8.2653 </r>
       <r>    -7.2400     4.0418     8.3057 </r>
       <r>    -7.2300     3.9928     8.3456 </r>
       <r>    -7.2200     3.9379     8.3850 </r>
       <r>    -7.2100     3.8775     8.4238 </r>
       <r>    -7.2000     3.8124     8.4619 </r>
       <r>    -7.1900     3.7433     8.4993 </r>
       <r>    -7.1800     3.6706     8.5360 </r>
       <r>    -7.1700     3.5952     8.5720 </r>
       <r>    -7.1600     3.5175     8.6071 </r>
       <r>    -7.1500     3.4382     8.6415 </r>
       <r>    -7.1400     3.3577     8.6751 </r>
       <r>    -7.1300     3.2765     8.7079 </r>
       <r>    -7.1200     3.1951     8.7398 </r>
       <r>    -7.1100     3.1136     8.7710 </r>
       <r>    -7.1000     3.0325     8.8013 </r>
       <r>    -7.0900     2.9519     8.8308 </r>
       <r>    -7.0800     2.8720     8.8595 </r>
       <r>    -7.0700     2.7930     8.8875 </r>
       <r>    -7.0600     2.7150     8.9146 </r>
       <r>    -7.0500     2.6380     8.9410 </r>
       <r>    -7.0400     2.5621     8.9666 </r>
       <r>    -7.0300     2.4874     8.9915 </r>
       <r>    -7.0200     2.4140     9.0156 </r>
       <r>    -7.0100     2.3420     9.0390 </r>
       <r>    -7.0000     2.2716     9.0618 </r>
       <r>    -6.9900     2.2030     9.0838 </r>
       <r>    -6.9800     2.1365     9.1051 </r>
       <r>    -6.9700     2.0724     9.1259 </r>
       <r>    -6.9600     2.0111     9.1460 </r>
       <r>    -6.9500     1.9532     9.1655 </r>
       <r>    -6.9400     1.8991     9.1845 </r>
       <r>    -6.9300     1.8496     9.2030 </r>
       <r>    -6.9200     1.8052     9.2211 </r>
       <r>    -6.9100     1.7667     9.2387 </r>
       <r>    -6.9000     1.7349     9.2561 </r>
       <r>    -6.8900     1.7106     9.2732 </r>
       <r>    -6.8800     1.6946     9.2901 </r>
       <r>    -6.8700     1.6876     9.3070 </r>
       <r>    -6.8600     1.6904     9.3239 </r>
       <r>    -6.8500     1.7036     9.3409 </r>
       <r>    -6.8400     1.7279     9.3582 </r>
       <r>    -6.8300     1.7638     9.3759 </r>
       <r>    -6.8200     1.8116     9.3940 </r>
       <r>    -6.8100     1.8717     9.4127 </r>
       <r>    -6.8000     1.9440     9.4321 </r>
       <r>    -6.7900     2.0286     9.4524 </r>
       <r>    -6.7800     2.1251     9.4737 </r>
       <r>    -6.7700     2.2331     9.4960 </r>
       <r>    -6.7600     2.3521     9.5195 </r>
       <r>    -6.7500     2.4812     9.5443 </r>
       <r>    -6.7400     2.6193     9.5705 </r>
       <r>    -6.7300     2.7654     9.5982 </r>
       <r>    -6.7200     2.9181     9.6274 </r>
       <r>    -6.7100     3.0759     9.6581 </r>
       <r>    -6.7000     3.2371     9.6905 </r>
       <r>    -6.6900     3.4002     9.7245 </r>
       <r>    -6.6800     3.5634     9.7601 </r>
       <r>    -6.6700     3.7248     9.7974 </r>
       <r>    -6.6600     3.8826     9.8362 </r>
       <r>    -6.6500     4.0350     9.8766 </r>
       <r>    -6.6400     4.1804     9.9184 </r>
       <r>    -6.6300     4.3170     9.9615 </r>
       <r>    -6.6200     4.4433    10.0060 </r>
       <r>    -6.6100     4.5579    10.0515 </r>
       <r>    -6.6000     4.6596    10.0981 </r>
       <r>    -6.5900     4.7473    10.1456 </r>
       <r>    -6.5800     4.8201    10.1938 </r>
       <r>    -6.5700     4.8775    10.2426 </r>
       <r>    -6.5600     4.9189    10.2918 </r>
       <r>    -6.5500     4.9441    10.3412 </r>
       <r>    -6.5400     4.9531    10.3907 </r>
       <r>    -6.5300     4.9462    10.4402 </r>
       <r>    -6.5200     4.9236    10.4894 </r>
       <r>    -6.5100     4.8859    10.5383 </r>
       <r>    -6.5000     4.8338    10.5866 </r>
       <r>    -6.4900     4.7681    10.6343 </r>
       <r>    -6.4800     4.6898    10.6812 </r>
       <r>    -6.4700     4.5999    10.7272 </r>
       <r>    -6.4600     4.4996    10.7722 </r>
       <r>    -6.4500     4.3899    10.8161 </r>
       <r>    -6.4400     4.2720    10.8588 </r>
       <r>    -6.4300     4.1473    10.9003 </r>
       <r>    -6.4200     4.0168    10.9405 </r>
       <r>    -6.4100     3.8817    10.9793 </r>
       <r>    -6.4000     3.7432    11.0167 </r>
       <r>    -6.3900     3.6025    11.0527 </r>
       <r>    -6.3800     3.4605    11.0873 </r>
       <r>    -6.3700     3.3183    11.1205 </r>
       <r>    -6.3600     3.1768    11.1523 </r>
       <r>    -6.3500     3.0370    11.1827 </r>
       <r>    -6.3400     2.8997    11.2117 </r>
       <r>    -6.3300     2.7657    11.2393 </r>
       <r>    -6.3200     2.6358    11.2657 </r>
       <r>    -6.3100     2.5107    11.2908 </r>
       <r>    -6.3000     2.3909    11.3147 </r>
       <r>    -6.2900     2.2770    11.3375 </r>
       <r>    -6.2800     2.1695    11.3592 </r>
       <r>    -6.2700     2.0690    11.3799 </r>
       <r>    -6.2600     1.9758    11.3996 </r>
       <r>    -6.2500     1.8901    11.4185 </r>
       <r>    -6.2400     1.8123    11.4366 </r>
       <r>    -6.2300     1.7426    11.4541 </r>
       <r>    -6.2200     1.6810    11.4709 </r>
       <r>    -6.2100     1.6276    11.4871 </r>
       <r>    -6.2000     1.5824    11.5030 </r>
       <r>    -6.1900     1.5452    11.5184 </r>
       <r>    -6.1800     1.5159    11.5336 </r>
       <r>    -6.1700     1.4943    11.5485 </r>
       <r>    -6.1600     1.4798    11.5633 </r>
       <r>    -6.1500     1.4723    11.5780 </r>
       <r>    -6.1400     1.4711    11.5928 </r>
       <r>    -6.1300     1.4758    11.6075 </r>
       <r>    -6.1200     1.4858    11.6224 </r>
       <r>    -6.1100     1.5005    11.6374 </r>
       <r>    -6.1000     1.5192    11.6526 </r>
       <r>    -6.0900     1.5412    11.6680 </r>
       <r>    -6.0800     1.5659    11.6836 </r>
       <r>    -6.0700     1.5926    11.6996 </r>
       <r>    -6.0600     1.6204    11.7158 </r>
       <r>    -6.0500     1.6489    11.7323 </r>
       <r>    -6.0400     1.6772    11.7490 </r>
       <r>    -6.0300     1.7049    11.7661 </r>
       <r>    -6.0200     1.7312    11.7834 </r>
       <r>    -6.0100     1.7556    11.8010 </r>
       <r>    -6.0000     1.7777    11.8187 </r>
       <r>    -5.9900     1.7970    11.8367 </r>
       <r>    -5.9800     1.8131    11.8548 </r>
       <r>    -5.9700     1.8256    11.8731 </r>
       <r>    -5.9600     1.8343    11.8914 </r>
       <r>    -5.9500     1.8390    11.9098 </r>
       <r>    -5.9400     1.8394    11.9282 </r>
       <r>    -5.9300     1.8356    11.9466 </r>
       <r>    -5.9200     1.8275    11.9648 </r>
       <r>    -5.9100     1.8151    11.9830 </r>
       <r>    -5.9000     1.7984    12.0010 </r>
       <r>    -5.8900     1.7776    12.0188 </r>
       <r>    -5.8800     1.7529    12.0363 </r>
       <r>    -5.8700     1.7245    12.0535 </r>
       <r>    -5.8600     1.6927    12.0705 </r>
       <r>    -5.8500     1.6578    12.0870 </r>
       <r>    -5.8400     1.6201    12.1032 </r>
       <r>    -5.8300     1.5801    12.1190 </r>
       <r>    -5.8200     1.5382    12.1344 </r>
       <r>    -5.8100     1.4949    12.1494 </r>
       <r>    -5.8000     1.4507    12.1639 </r>
       <r>    -5.7900     1.4061    12.1779 </r>
       <r>    -5.7800     1.3619    12.1916 </r>
       <r>    -5.7700     1.3184    12.2047 </r>
       <r>    -5.7600     1.2765    12.2175 </r>
       <r>    -5.7500     1.2368    12.2299 </r>
       <r>    -5.7400     1.1999    12.2419 </r>
       <r>    -5.7300     1.1665    12.2535 </r>
       <r>    -5.7200     1.1374    12.2649 </r>
       <r>    -5.7100     1.1131    12.2760 </r>
       <r>    -5.7000     1.0944    12.2870 </r>
       <r>    -5.6900     1.0819    12.2978 </r>
       <r>    -5.6800     1.0763    12.3086 </r>
       <r>    -5.6700     1.0781    12.3193 </r>
       <r>    -5.6600     1.0879    12.3302 </r>
       <r>    -5.6500     1.1063    12.3413 </r>
       <r>    -5.6400     1.1336    12.3526 </r>
       <r>    -5.6300     1.1701    12.3643 </r>
       <r>    -5.6200     1.2164    12.3765 </r>
       <r>    -5.6100     1.2724    12.3892 </r>
       <r>    -5.6000     1.3384    12.4026 </r>
       <r>    -5.5900     1.4143    12.4167 </r>
       <r>    -5.5800     1.5001    12.4317 </r>
       <r>    -5.5700     1.5957    12.4477 </r>
       <r>    -5.5600     1.7007    12.4647 </r>
       <r>    -5.5500     1.8148    12.4829 </r>
       <r>    -5.5400     1.9375    12.5022 </r>
       <r>    -5.5300     2.0681    12.5229 </r>
       <r>    -5.5200     2.2061    12.5450 </r>
       <r>    -5.5100     2.3506    12.5685 </r>
       <r>    -5.5000     2.5007    12.5935 </r>
       <r>    -5.4900     2.6555    12.6200 </r>
       <r>    -5.4800     2.8141    12.6482 </r>
       <r>    -5.4700     2.9753    12.6779 </r>
       <r>    -5.4600     3.1381    12.7093 </r>
       <r>    -5.4500     3.3013    12.7423 </r>
       <r>    -5.4400     3.4637    12.7770 </r>
       <r>    -5.4300     3.6242    12.8132 </r>
       <r>    -5.4200     3.7816    12.8510 </r>
       <r>    -5.4100     3.9348    12.8904 </r>
       <r>    -5.4000     4.0826    12.9312 </r>
       <r>    -5.3900     4.2239    12.9734 </r>
       <r>    -5.3800     4.3578    13.0170 </r>
       <r>    -5.3700     4.4832    13.0618 </r>
       <r>    -5.3600     4.5992    13.1078 </r>
       <r>    -5.3500     4.7051    13.1549 </r>
       <r>    -5.3400     4.8000    13.2029 </r>
       <r>    -5.3300     4.8833    13.2517 </r>
       <r>    -5.3200     4.9544    13.3013 </r>
       <r>    -5.3100     5.0129    13.3514 </r>
       <r>    -5.3000     5.0583    13.4020 </r>
       <r>    -5.2900     5.0905    13.4529 </r>
       <r>    -5.2800     5.1091    13.5040 </r>
       <r>    -5.2700     5.1142    13.5551 </r>
       <r>    -5.2600     5.1058    13.6062 </r>
       <r>    -5.2500     5.0840    13.6570 </r>
       <r>    -5.2400     5.0490    13.7075 </r>
       <r>    -5.2300     5.0012    13.7575 </r>
       <r>    -5.2200     4.9410    13.8069 </r>
       <r>    -5.2100     4.8688    13.8556 </r>
       <r>    -5.2000     4.7854    13.9035 </r>
       <r>    -5.1900     4.6913    13.9504 </r>
       <r>    -5.1800     4.5873    13.9963 </r>
       <r>    -5.1700     4.4743    14.0410 </r>
       <r>    -5.1600     4.3532    14.0845 </r>
       <r>    -5.1500     4.2248    14.1268 </r>
       <r>    -5.1400     4.0903    14.1677 </r>
       <r>    -5.1300     3.9506    14.2072 </r>
       <r>    -5.1200     3.8069    14.2453 </r>
       <r>    -5.1100     3.6602    14.2819 </r>
       <r>    -5.1000     3.5116    14.3170 </r>
       <r>    -5.0900     3.3624    14.3506 </r>
       <r>    -5.0800     3.2136    14.3827 </r>
       <r>    -5.0700     3.0662    14.4134 </r>
       <r>    -5.0600     2.9215    14.4426 </r>
       <r>    -5.0500     2.7804    14.4704 </r>
       <r>    -5.0400     2.6439    14.4968 </r>
       <r>    -5.0300     2.5129    14.5220 </r>
       <r>    -5.0200     2.3884    14.5459 </r>
       <r>    -5.0100     2.2711    14.5686 </r>
       <r>    -5.0000     2.1617    14.5902 </r>
       <r>    -4.9900     2.0609    14.6108 </r>
       <r>    -4.9800     1.9693    14.6305 </r>
       <r>    -4.9700     1.8872    14.6494 </r>
       <r>    -4.9600     1.8151    14.6675 </r>
       <r>    -4.9500     1.7531    14.6850 </r>
       <r>    -4.9400     1.7014    14.7021 </r>
       <r>    -4.9300     1.6599    14.7187 </r>
       <r>    -4.9200     1.6287    14.7349 </r>
       <r>    -4.9100     1.6075    14.7510 </r>
       <r>    -4.9000     1.5960    14.7670 </r>
       <r>    -4.8900     1.5938    14.7829 </r>
       <r>    -4.8800     1.6003    14.7989 </r>
       <r>    -4.8700     1.6150    14.8151 </r>
       <r>    -4.8600     1.6372    14.8314 </r>
       <r>    -4.8500     1.6662    14.8481 </r>
       <r>    -4.8400     1.7010    14.8651 </r>
       <r>    -4.8300     1.7408    14.8825 </r>
       <r>    -4.8200     1.7847    14.9004 </r>
       <r>    -4.8100     1.8318    14.9187 </r>
       <r>    -4.8000     1.8810    14.9375 </r>
       <r>    -4.7900     1.9315    14.9568 </r>
       <r>    -4.7800     1.9823    14.9766 </r>
       <r>    -4.7700     2.0326    14.9970 </r>
       <r>    -4.7600     2.0814    15.0178 </r>
       <r>    -4.7500     2.1281    15.0391 </r>
       <r>    -4.7400     2.1720    15.0608 </r>
       <r>    -4.7300     2.2125    15.0829 </r>
       <r>    -4.7200     2.2491    15.1054 </r>
       <r>    -4.7100     2.2814    15.1282 </r>
       <r>    -4.7000     2.3093    15.1513 </r>
       <r>    -4.6900     2.3326    15.1746 </r>
       <r>    -4.6800     2.3512    15.1981 </r>
       <r>    -4.6700     2.3653    15.2218 </r>
       <r>    -4.6600     2.3752    15.2455 </r>
       <r>    -4.6500     2.3811    15.2694 </r>
       <r>    -4.6400     2.3835    15.2932 </r>
       <r>    -4.6300     2.3828    15.3170 </r>
       <r>    -4.6200     2.3796    15.3408 </r>
       <r>    -4.6100     2.3746    15.3646 </r>
       <r>    -4.6000     2.3682    15.3882 </r>
       <r>    -4.5900     2.3613    15.4119 </r>
       <r>    -4.5800     2.3543    15.4354 </r>
       <r>    -4.5700     2.3480    15.4589 </r>
       <r>    -4.5600     2.3430    15.4823 </r>
       <r>    -4.5500     2.3397    15.5057 </r>
       <r>    -4.5400     2.3387    15.5291 </r>
       <r>    -4.5300     2.3403    15.5525 </r>
       <r>    -4.5200     2.3449    15.5759 </r>
       <r>    -4.5100     2.3527    15.5995 </r>
       <r>    -4.5000     2.3639    15.6231 </r>
       <r>    -4.4900     2.3785    15.6469 </r>
       <r>    -4.4800     2.3965    15.6709 </r>
       <r>    -4.4700     2.4177    15.6950 </r>
       <r>    -4.4600     2.4420    15.7195 </r>
       <r>    -4.4500     2.4690    15.7441 </r>
       <r>    -4.4400     2.4985    15.7691 </r>
       <r>    -4.4300     2.5299    15.7944 </r>
       <r>    -4.4200     2.5629    15.8201 </r>
       <r>    -4.4100     2.5968    15.8460 </r>
       <r>    -4.4000     2.6313    15.8723 </r>
       <r>    -4.3900     2.6657    15.8990 </r>
       <r>    -4.3800     2.6995    15.9260 </r>
       <r>    -4.3700     2.7322    15.9533 </r>
       <r>    -4.3600     2.7632    15.9809 </r>
       <r>    -4.3500     2.7921    16.0089 </r>
       <r>    -4.3400     2.8185    16.0371 </r>
       <r>    -4.3300     2.8420    16.0655 </r>
       <r>    -4.3200     2.8623    16.0941 </r>
       <r>    -4.3100     2.8791    16.1229 </r>
       <r>    -4.3000     2.8923    16.1518 </r>
       <r>    -4.2900     2.9018    16.1808 </r>
       <r>    -4.2800     2.9076    16.2099 </r>
       <r>    -4.2700     2.9097    16.2390 </r>
       <r>    -4.2600     2.9083    16.2681 </r>
       <r>    -4.2500     2.9036    16.2971 </r>
       <r>    -4.2400     2.8960    16.3261 </r>
       <r>    -4.2300     2.8857    16.3549 </r>
       <r>    -4.2200     2.8731    16.3837 </r>
       <r>    -4.2100     2.8588    16.4123 </r>
       <r>    -4.2000     2.8431    16.4407 </r>
       <r>    -4.1900     2.8266    16.4690 </r>
       <r>    -4.1800     2.8099    16.4971 </r>
       <r>    -4.1700     2.7932    16.5250 </r>
       <r>    -4.1600     2.7773    16.5528 </r>
       <r>    -4.1500     2.7623    16.5804 </r>
       <r>    -4.1400     2.7489    16.6079 </r>
       <r>    -4.1300     2.7372    16.6352 </r>
       <r>    -4.1200     2.7274    16.6625 </r>
       <r>    -4.1100     2.7199    16.6897 </r>
       <r>    -4.1000     2.7145    16.7169 </r>
       <r>    -4.0900     2.7113    16.7440 </r>
       <r>    -4.0800     2.7101    16.7711 </r>
       <r>    -4.0700     2.7107    16.7982 </r>
       <r>    -4.0600     2.7128    16.8253 </r>
       <r>    -4.0500     2.7159    16.8525 </r>
       <r>    -4.0400     2.7195    16.8797 </r>
       <r>    -4.0300     2.7231    16.9069 </r>
       <r>    -4.0200     2.7259    16.9342 </r>
       <r>    -4.0100     2.7275    16.9614 </r>
       <r>    -4.0000     2.7271    16.9887 </r>
       <r>    -3.9900     2.7240    17.0159 </r>
       <r>    -3.9800     2.7175    17.0431 </r>
       <r>    -3.9700     2.7072    17.0702 </r>
       <r>    -3.9600     2.6925    17.0971 </r>
       <r>    -3.9500     2.6728    17.1238 </r>
       <r>    -3.9400     2.6479    17.1503 </r>
       <r>    -3.9300     2.6176    17.1765 </r>
       <r>    -3.9200     2.5817    17.2023 </r>
       <r>    -3.9100     2.5402    17.2277 </r>
       <r>    -3.9000     2.4933    17.2526 </r>
       <r>    -3.8900     2.4413    17.2771 </r>
       <r>    -3.8800     2.3846    17.3009 </r>
       <r>    -3.8700     2.3236    17.3241 </r>
       <r>    -3.8600     2.2591    17.3467 </r>
       <r>    -3.8500     2.1918    17.3686 </r>
       <r>    -3.8400     2.1224    17.3899 </r>
       <r>    -3.8300     2.0517    17.4104 </r>
       <r>    -3.8200     1.9807    17.4302 </r>
       <r>    -3.8100     1.9101    17.4493 </r>
       <r>    -3.8000     1.8409    17.4677 </r>
       <r>    -3.7900     1.7737    17.4854 </r>
       <r>    -3.7800     1.7095    17.5025 </r>
       <r>    -3.7700     1.6487    17.5190 </r>
       <r>    -3.7600     1.5920    17.5349 </r>
       <r>    -3.7500     1.5398    17.5503 </r>
       <r>    -3.7400     1.4925    17.5653 </r>
       <r>    -3.7300     1.4502    17.5798 </r>
       <r>    -3.7200     1.4130    17.5939 </r>
       <r>    -3.7100     1.3809    17.6077 </r>
       <r>    -3.7000     1.3536    17.6212 </r>
       <r>    -3.6900     1.3309    17.6346 </r>
       <r>    -3.6800     1.3125    17.6477 </r>
       <r>    -3.6700     1.2977    17.6607 </r>
       <r>    -3.6600     1.2860    17.6735 </r>
       <r>    -3.6500     1.2769    17.6863 </r>
       <r>    -3.6400     1.2697    17.6990 </r>
       <r>    -3.6300     1.2636    17.7116 </r>
       <r>    -3.6200     1.2580    17.7242 </r>
       <r>    -3.6100     1.2522    17.7367 </r>
       <r>    -3.6000     1.2457    17.7492 </r>
       <r>    -3.5900     1.2378    17.7616 </r>
       <r>    -3.5800     1.2280    17.7738 </r>
       <r>    -3.5700     1.2159    17.7860 </r>
       <r>    -3.5600     1.2010    17.7980 </r>
       <r>    -3.5500     1.1832    17.8098 </r>
       <r>    -3.5400     1.1622    17.8215 </r>
       <r>    -3.5300     1.1379    17.8328 </r>
       <r>    -3.5200     1.1104    17.8439 </r>
       <r>    -3.5100     1.0796    17.8547 </r>
       <r>    -3.5000     1.0458    17.8652 </r>
       <r>    -3.4900     1.0091    17.8753 </r>
       <r>    -3.4800     0.9698    17.8850 </r>
       <r>    -3.4700     0.9283    17.8943 </r>
       <r>    -3.4600     0.8849    17.9031 </r>
       <r>    -3.4500     0.8400    17.9115 </r>
       <r>    -3.4400     0.7941    17.9195 </r>
       <r>    -3.4300     0.7474    17.9269 </r>
       <r>    -3.4200     0.7005    17.9339 </r>
       <r>    -3.4100     0.6538    17.9405 </r>
       <r>    -3.4000     0.6075    17.9465 </r>
       <r>    -3.3900     0.5621    17.9522 </r>
       <r>    -3.3800     0.5178    17.9573 </r>
       <r>    -3.3700     0.4750    17.9621 </r>
       <r>    -3.3600     0.4339    17.9664 </r>
       <r>    -3.3500     0.3946    17.9704 </r>
       <r>    -3.3400     0.3574    17.9740 </r>
       <r>    -3.3300     0.3223    17.9772 </r>
       <r>    -3.3200     0.2895    17.9801 </r>
       <r>    -3.3100     0.2589    17.9827 </r>
       <r>    -3.3000     0.2306    17.9850 </r>
       <r>    -3.2900     0.2045    17.9870 </r>
       <r>    -3.2800     0.1806    17.9888 </r>
       <r>    -3.2700     0.1589    17.9904 </r>
       <r>    -3.2600     0.1392    17.9918 </r>
       <r>    -3.2500     0.1215    17.9930 </r>
       <r>    -3.2400     0.1056    17.9941 </r>
       <r>    -3.2300     0.0914    17.9950 </r>
       <r>    -3.2200     0.0788    17.9958 </r>
       <r>    -3.2100     0.0677    17.9965 </r>
       <r>    -3.2000     0.0579    17.9970 </r>
       <r>    -3.1900     0.0493    17.9975 </r>
       <r>    -3.1800     0.0419    17.9979 </r>
       <r>    -3.1700     0.0354    17.9983 </r>
       <r>    -3.1600     0.0298    17.9986 </r>
       <r>    -3.1500     0.0250    17.9988 </r>
       <r>    -3.1400     0.0209    17.9991 </r>
       <r>    -3.1300     0.0174    17.9992 </r>
       <r>    -3.1200     0.0144    17.9994 </r>
       <r>    -3.1100     0.0119    17.9995 </r>
       <r>    -3.1000     0.0098    17.9996 </r>
       <r>    -3.0900     0.0080    17.9997 </r>
       <r>    -3.0800     0.0066    17.9997 </r>
       <r>    -3.0700     0.0053    17.9998 </r>
       <r>    -3.0600     0.0043    17.9998 </r>
       <r>    -3.0500     0.0035    17.9999 </r>
       <r>    -3.0400     0.0028    17.9999 </r>
       <r>    -3.0300     0.0022    17.9999 </r>
       <r>    -3.0200     0.0018    17.9999 </r>
       <r>    -3.0100     0.0014    17.9999 </r>
       <r>    -3.0000     0.0011    18.0000 </r>
       <r>    -2.9900     0.0009    18.0000 </r>
       <r>    -2.9800     0.0007    18.0000 </r>
       <r>    -2.9700     0.0005    18.0000 </r>
       <r>    -2.9600     0.0004    18.0000 </r>
       <r>    -2.9500     0.0003    18.0000 </r>
       <r>    -2.9400     0.0003    18.0000 </r>
       <r>    -2.9300     0.0002    18.0000 </r>
       <r>    -2.9200     0.0001    18.0000 </r>
       <r>    -2.9100     0.0001    18.0000 </r>
       <r>    -2.9000     0.0001    18.0000 </r>
       <r>    -2.8900     0.0001    18.0000 </r>
       <r>    -2.8800     0.0000    18.0000 </r>
       <r>    -2.8700     0.0000    18.0000 </r>
       <r>    -2.8600     0.0000    18.0000 </r>
       <r>    -2.8500     0.0000    18.0000 </r>
       <r>    -2.8400     0.0000    18.0000 </r>
       <r>    -2.8300     0.0000    18.0000 </r>
       <r>    -2.8200     0.0000    18.0000 </r>
       <r>    -2.8100     0.0000    18.0000 </r>
       <r>    -2.8000     0.0000    18.0000 </r>
       <r>    -2.7900     0.0000    18.0000 </r>
       <r>    -2.7800     0.0000    18.0000 </r>
       <r>    -2.7700     0.0000    18.0000 </r>
       <r>    -2.7600     0.0000    18.0000 </r>
       <r>    -2.7500     0.0000    18.0000 </r>
       <r>    -2.7400     0.0000    18.0000 </r>
       <r>    -2.7300     0.0000    18.0000 </r>
       <r>    -2.7200     0.0000    18.0000 </r>
       <r>    -2.7100     0.0000    18.0000 </r>
       <r>    -2.7000     0.0000    18.0000 </r>
       <r>    -2.6900     0.0000    18.0000 </r>
       <r>    -2.6800     0.0000    18.0000 </r>
       <r>    -2.6700     0.0000    18.0000 </r>
       <r>    -2.6600     0.0000    18.0000 </r>
       <r>    -2.6500     0.0000    18.0000 </r>
       <r>    -2.6400     0.0000    18.0000 </r>
       <r>    -2.6300     0.0000    18.0000 </r>
       <r>    -2.6200     0.0000    18.0000 </r>
       <r>    -2.6100     0.0000    18.0000 </r>
       <r>    -2.6000     0.0000    18.0000 </r>
       <r>    -2.5900     0.0000    18.0000 </r>
       <r>    -2.5800     0.0000    18.0000 </r>
       <r>    -2.5700     0.0000    18.0000 </r>
       <r>    -2.5600     0.0000    18.0000 </r>
       <r>    -2.5500     0.0000    18.0000 </r>
       <r>    -2.5400     0.0000    18.0000 </r>
       <r>    -2.5300     0.0000    18.0000 </r>
       <r>    -2.5200     0.0000    18.0000 </r>
[...]
        <r>  0.0072  0.0713  0.0134  0.0405  0.0000  0.0000  0.0000  0.0000  0.0000 </r>
        <r>  0.0072  0.0713  0.0134  0.0405  0.0000  0.0000  0.0000  0.0000  0.0000 </r>
       </set>
       <set comment="band 11">
        <r>  0.0059  0.0061  0.0000  0.0055  0.2851  0.0000  0.0990  0.0000  0.1013 </r>
        <r>  0.0007  0.0397  0.0049  0.0956  0.0000  0.0000  0.0000  0.0000  0.0000 </r>
        <r>  0.0007  0.0397  0.0049  0.0956  0.0000  0.0000  0.0000  0.0000  0.0000 </r>
       </set>
       <set comment="band 12">
        <r>  0.0000  0.0000  0.0002  0.0000  0.0000  0.2432  0.0000  0.3035  0.0000 </r>
        <r>  0.0257  0.0395  0.0135  0.0145  0.0000  0.0000  0.0000  0.0000  0.0000 </r>
        <r>  0.0257  0.0395  0.0135  0.0145  0.0000  0.0000  0.0000  0.0000  0.0000 </r>
       </set>
       <set comment="band 13">
        <r>  0.0000  0.0000  0.0027  0.0000  0.0000  0.2525  0.0000  0.1916  0.0000 </r>
        <r>  0.0025  0.0406  0.0086  0.1196  0.0000  0.0000  0.0000  0.0000  0.0000 </r>
        <r>  0.0025  0.0406  0.0086  0.1196  0.0000  0.0000  0.0000  0.0000  0.0000 </r>
       </set>
       <set comment="band 14">
        <r>  0.0075  0.0037  0.0000  0.0018  0.0014  0.0001  0.0204  0.0000  0.0034 </r>
        <r>  0.0074  0.0056  0.0071  0.0021  0.0000  0.0000  0.0000  0.0000  0.0000 </r>
        <r>  0.0063  0.0050  0.0029  0.0017  0.0000  0.0000  0.0000  0.0000  0.0000 </r>
       </set>
      </set>
      <set comment="kpoint 7">
       <set comment="band 1">
        <r>  0.0576  0.0184  0.0000  0.0166  0.0142  0.0000  0.0008  0.0000  0.0116 </r>
        <r>  0.3024  0.0013  0.0053  0.0010  0.0000  0.0000  0.0000  0.0000  0.0000 </r>
        <r>  0.3024  0.0013  0.0053  0.0010  0.0000  0.0000  0.0000  0.0000  0.0000 </r>
       </set>
       <set comment="band 2">
        <r>  0.0000  0.0000  0.0239  0.0000  0.0000  0.0400  0.0000  0.0372  0.0000 </r>
        <r>  0.3250  0.0007  0.0018  0.0006  0.0000  0.0000  0.0000  0.0000  0.0000 </r>
        <r>  0.3250  0.0007  0.0018  0.0006  0.0000  0.0000  0.0000  0.0000  0.0000 </r>
       </set>
       <set comment="band 3">
        <r>  0.0219  0.0058  0.0000  0.0251  0.1216  0.0000  0.0657  0.0000  0.1287 </r>
        <r>  0.0017  0.0523  0.0478  0.0482  0.0000  0.0000  0.0000  0.0000  0.0000 </r>
        <r>  0.0017  0.0523  0.0478  0.0482  0.0000  0.0000  0.0000  0.0000  0.0000 </r>
       </set>
       <set comment="band 4">
        <r>  0.0000  0.0000  0.0208  0.0000  0.0000  0.0062  0.0000  0.2847  0.0000 </r>
        <r>  0.0062  0.0662  0.0150  0.0979  0.0000  0.0000  0.0000  0.0000  0.0000 </r>
        <r>  0.0062  0.0662  0.0150  0.0979  0.0000  0.0000  0.0000  0.0000  0.0000 </r>
       </set>
       <set comment="band 5">
        <r>  0.1216  0.0191  0.0000  0.0235  0.0287  0.0000  0.0523  0.0000  0.0057 </r>
        <r>  0.0328  0.0238  0.1106  0.0311  0.0000  0.0000  0.0000  0.0000  0.0000 </r>
        <r>  0.0328  0.0238  0.1106  0.0311  0.0000  0.0000  0.0000  0.0000  0.0000 </r>
       </set>
       <set comment="band 6">
        <r>  0.0000  0.0000  0.0056  0.0000  0.0000  0.3935  0.0000  0.0047  0.0000 </r>
        <r>  0.0029  0.0869  0.0506  0.0342  0.0000  0.0000  0.0000  0.0000  0.0000 </r>
        <r>  0.0029  0.0869  0.0506  0.0342  0.0000  0.0000  0.0000  0.0000  0.0000 </r>
       </set>
       <set comment="band 7">
        <r>  0.0135  0.0434  0.0000  0.0225  0.0265  0.0000  0.1134  0.0000  0.1178 </r>
        <r>  0.0016  0.0793  0.0035  0.0967  0.0000  0.0000  0.0000  0.0000  0.0000 </r>
        <r>  0.0016  0.0793  0.0035  0.0967  0.0000  0.0000  0.0000  0.0000  0.0000 </r>
       </set>
       <set comment="band 8">
        <r>  0.0000  0.0000  0.0647  0.0000  0.0000  0.0064  0.0000  0.0673  0.0000 </r>
        <r>  0.0087  0.0383  0.1534  0.0651  0.0000  0.0000  0.0000  0.0000  0.0000 </r>
        <r>  0.0087  0.0383  0.1534  0.0651  0.0000  0.0000  0.0000  0.0000  0.0000 </r>
       </set>
       <set comment="band 9">
        <r>  0.0025  0.0077  0.0000  0.0016  0.2466  0.0000  0.2342  0.0000  0.1593 </r>
        <r>  0.0043  0.0375  0.0216  0.0219  0.0000  0.0000  0.0000  0.0000  0.0000 </r>
        <r>  0.0043  0.0375  0.0216  0.0219  0.0000  0.0000  0.0000  0.0000  0.0000 </r>
       </set>
       <set comment="band 10">
        <r>  0.0080  0.0088  0.0000  0.0051  0.1225  0.0000  0.0882  0.0000  0.3460 </r>
        <r>  0.0034  0.0445  0.0233  0.0137  0.0000  0.0000  0.0000  0.0000  0.0000 </r>
        <r>  0.0034  0.0445  0.0233  0.0137  0.0000  0.0000  0.0000  0.0000  0.0000 </r>
       </set>
       <set comment="band 11">
        <r>  0.0114  0.0028  0.0000  0.0006  0.3143  0.0000  0.3113  0.0000  0.0885 </r>
        <r>  0.0004  0.0205  0.0071  0.0399  0.0000  0.0000  0.0000  0.0000  0.0000 </r>
        <r>  0.0004  0.0205  0.0071  0.0399  0.0000  0.0000  0.0000  0.0000  0.0000 </r>
       </set>
       <set comment="band 12">
        <r>  0.0000  0.0000  0.0065  0.0000  0.0000  0.1057  0.0000  0.4327  0.0000 </r>
        <r>  0.0211  0.0366  0.0268  0.0058  0.0000  0.0000  0.0000  0.0000  0.0000 </r>
        <r>  0.0211  0.0366  0.0268  0.0058  0.0000  0.0000  0.0000  0.0000  0.0000 </r>
       </set>
       <set comment="band 13">
        <r>  0.0000  0.0000  0.0026  0.0000  0.0000  0.3984  0.0000  0.0885  0.0000 </r>
        <r>  0.0083  0.0430  0.0288  0.0702  0.0000  0.0000  0.0000  0.0000  0.0000 </r>
        <r>  0.0083  0.0430  0.0288  0.0702  0.0000  0.0000  0.0000  0.0000  0.0000 </r>
       </set>
       <set comment="band 14">
        <r>  0.0019  0.0106  0.0000  0.0156  0.0050  0.0000  0.0141  0.0000  0.0087 </r>
        <r>  0.0090  0.0054  0.0075  0.0013  0.0000  0.0000  0.0000  0.0000  0.0000 </r>
        <r>  0.0086  0.0051  0.0048  0.0011  0.0000  0.0000  0.0000  0.0000  0.0000 </r>
       </set>
      </set>
      <set comment="kpoint 8">
       <set comment="band 1">
        <r>  0.0208  0.0185  0.0000  0.0307  0.0314  0.0000  0.0003  0.0000  0.0158 </r>
        <r>  0.3194  0.0004  0.0059  0.0003  0.0000  0.0000  0.0000  0.0000  0.0000 </r>
        <r>  0.3195  0.0004  0.0059  0.0003  0.0000  0.0000  0.0000  0.0000  0.0000 </r>
       </set>
       <set comment="band 2">
        <r>  0.0000  0.0000  0.0071  0.0000  0.0000  0.0407  0.0000  0.0720  0.0000 </r>
        <r>  0.3311  0.0003  0.0027  0.0003  0.0000  0.0000  0.0000  0.0000  0.0000 </r>
        <r>  0.3310  0.0003  0.0027  0.0003  0.0000  0.0000  0.0000  0.0000  0.0000 </r>
       </set>
       <set comment="band 3">
        <r>  0.1026  0.0024  0.0000  0.0266  0.0645  0.0000  0.0342  0.0000  0.0433 </r>
        <r>  0.0043  0.0508  0.0087  0.1019  0.0000  0.0000  0.0000  0.0000  0.0000 </r>
        <r>  0.0043  0.0508  0.0087  0.1019  0.0000  0.0000  0.0000  0.0000  0.0000 </r>
       </set>
       <set comment="band 4">
        <r>  0.0000  0.0000  0.0350  0.0000  0.0000  0.0692  0.0000  0.1795  0.0000 </r>
        <r>  0.0071  0.0573  0.0054  0.1112  0.0000  0.0000  0.0000  0.0000  0.0000 </r>
        <r>  0.0071  0.0573  0.0054  0.1112  0.0000  0.0000  0.0000  0.0000  0.0000 </r>
       </set>
       <set comment="band 5">
        <r>  0.0162  0.0240  0.0000  0.0179  0.1402  0.0000  0.0903  0.0000  0.0527 </r>
        <r>  0.0206  0.0058  0.1295  0.0199  0.0000  0.0000  0.0000  0.0000  0.0000 </r>
        <r>  0.0206  0.0058  0.1295  0.0199  0.0000  0.0000  0.0000  0.0000  0.0000 </r>
       </set>
       <set comment="band 6">
        <r>  0.0000  0.0000  0.0256  0.0000  0.0000  0.3184  0.0000  0.0260  0.0000 </r>
        <r>  0.0020  0.1085  0.0279  0.0475  0.0000  0.0000  0.0000  0.0000  0.0000 </r>
        <r>  0.0020  0.1085  0.0279  0.0475  0.0000  0.0000  0.0000  0.0000  0.0000 </r>
       </set>
       <set comment="band 7">
        <r>  0.0233  0.0416  0.0000  0.0489  0.0014  0.0000  0.0711  0.0000  0.0230 </r>
        <r>  0.0063  0.1215  0.0320  0.0561  0.0000  0.0000  0.0000  0.0000  0.0000 </r>
        <r>  0.0063  0.1215  0.0320  0.0561  0.0000  0.0000  0.0000  0.0000  0.0000 </r>
       </set>
       <set comment="band 8">
        <r>  0.0000  0.0000  0.0363  0.0000  0.0000  0.0160  0.0000  0.1501  0.0000 </r>
        <r>  0.0118  0.0171  0.1756  0.0390  0.0000  0.0000  0.0000  0.0000  0.0000 </r>
        <r>  0.0118  0.0171  0.1756  0.0390  0.0000  0.0000  0.0000  0.0000  0.0000 </r>
       </set>
       <set comment="band 9">
        <r>  0.0034  0.0196  0.0000  0.0198  0.1840  0.0000  0.1603  0.0000  0.1971 </r>
        <r>  0.0008  0.0478  0.0257  0.0261  0.0000  0.0000  0.0000  0.0000  0.0000 </r>
        <r>  0.0008  0.0478  0.0257  0.0261  0.0000  0.0000  0.0000  0.0000  0.0000 </r>
       </set>
       <set comment="band 10">
        <r>  0.0051  0.0091  0.0000  0.0018  0.0649  0.0000  0.3343  0.0000  0.3774 </r>
        <r>  0.0002  0.0266  0.0148  0.0068  0.0000  0.0000  0.0000  0.0000  0.0000 </r>
        <r>  0.0002  0.0266  0.0148  0.0068  0.0000  0.0000  0.0000  0.0000  0.0000 </r>
       </set>
       <set comment="band 11">
        <r>  0.0154  0.0057  0.0000  0.0107  0.3790  0.0000  0.2183  0.0000  0.1808 </r>
        <r>  0.0021  0.0014  0.0171  0.0181  0.0000  0.0000  0.0000  0.0000  0.0000 </r>
        <r>  0.0021  0.0014  0.0171  0.0181  0.0000  0.0000  0.0000  0.0000  0.0000 </r>
       </set>
       <set comment="band 12">
        <r>  0.0000  0.0000  0.0063  0.0000  0.0000  0.1639  0.0000  0.3326  0.0000 </r>
        <r>  0.0091  0.0683  0.0151  0.0162  0.0000  0.0000  0.0000  0.0000  0.0000 </r>
        <r>  0.0091  0.0683  0.0151  0.0162  0.0000  0.0000  0.0000  0.0000  0.0000 </r>
       </set>
       <set comment="band 13">
        <r>  0.0000  0.0000  0.0004  0.0000  0.0000  0.3333  0.0000  0.1444  0.0000 </r>
        <r>  0.0189  0.0144  0.0665  0.0290  0.0000  0.0000  0.0000  0.0000  0.0000 </r>
        <r>  0.0189  0.0144  0.0665  0.0290  0.0000  0.0000  0.0000  0.0000  0.0000 </r>
       </set>
       <set comment="band 14">
        <r>  0.1877  0.0089  0.0000  0.0533  0.0404  0.0000  0.0061  0.0000  0.0387 </r>
        <r>  0.0001  0.0013  0.0115  0.0051  0.0000  0.0000  0.0000  0.0000  0.0000 </r>
        <r>  0.0001  0.0013  0.0115  0.0051  0.0000  0.0000  0.0000  0.0000  0.0000 </r>
       </set>
      </set>
      <set comment="kpoint 9">
       <set comment="band 1">
        <r>  0.0218  0.0321  0.0000  0.0178  0.0177  0.0000  0.0004  0.0000  0.0266 </r>
        <r>  0.3182  0.0009  0.0058  0.0003  0.0000  0.0000  0.0000  0.0000  0.0000 </r>
        <r>  0.3183  0.0009  0.0058  0.0003  0.0000  0.0000  0.0000  0.0000  0.0000 </r>
       </set>
       <set comment="band 2">
        <r>  0.0000  0.0000  0.0084  0.0000  0.0000  0.0705  0.0000  0.0375  0.0000 </r>
        <r>  0.3319  0.0005  0.0027  0.0002  0.0000  0.0000  0.0000  0.0000  0.0000 </r>
        <r>  0.3319  0.0005  0.0027  0.0002  0.0000  0.0000  0.0000  0.0000  0.0000 </r>
       </set>
       <set comment="band 3">
        <r>  0.0650  0.0098  0.0000  0.0293  0.0359  0.0000  0.0616  0.0000  0.1071 </r>
        <r>  0.0004  0.1067  0.0171  0.0360  0.0000  0.0000  0.0000  0.0000  0.0000 </r>
        <r>  0.0004  0.1067  0.0171  0.0360  0.0000  0.0000  0.0000  0.0000  0.0000 </r>
       </set>
       <set comment="band 4">
        <r>  0.0000  0.0000  0.0084  0.0000  0.0000  0.1284  0.0000  0.2208  0.0000 </r>
        <r>  0.0041  0.0958  0.0001  0.0666  0.0000  0.0000  0.0000  0.0000  0.0000 </r>
        <r>  0.0041  0.0958  0.0001  0.0666  0.0000  0.0000  0.0000  0.0000  0.0000 </r>
       </set>
       <set comment="band 5">
        <r>  0.0785  0.0205  0.0000  0.0103  0.0692  0.0000  0.0001  0.0000  0.0673 </r>
        <r>  0.0340  0.0203  0.1496  0.0151  0.0000  0.0000  0.0000  0.0000  0.0000 </r>
        <r>  0.0340  0.0203  0.1496  0.0151  0.0000  0.0000  0.0000  0.0000  0.0000 </r>
       </set>
       <set comment="band 6">
        <r>  0.0000  0.0000  0.0470  0.0000  0.0000  0.1649  0.0000  0.0581  0.0000 </r>
        <r>  0.0039  0.0671  0.0535  0.0781  0.0000  0.0000  0.0000  0.0000  0.0000 </r>
        <r>  0.0039  0.0671  0.0535  0.0781  0.0000  0.0000  0.0000  0.0000  0.0000 </r>
       </set>
       <set comment="band 7">
        <r>  0.0102  0.0636  0.0000  0.0362  0.0089  0.0000  0.1207  0.0000  0.0185 </r>
        <r>  0.0005  0.0419  0.0089  0.1233  0.0000  0.0000  0.0000  0.0000  0.0000 </r>
        <r>  0.0005  0.0419  0.0089  0.1233  0.0000  0.0000  0.0000  0.0000  0.0000 </r>
       </set>
       <set comment="band 8">
        <r>  0.0000  0.0000  0.0523  0.0000  0.0000  0.0592  0.0000  0.0753  0.0000 </r>
        <r>  0.0130  0.0383  0.1559  0.0459  0.0000  0.0000  0.0000  0.0000  0.0000 </r>
        <r>  0.0130  0.0383  0.1559  0.0459  0.0000  0.0000  0.0000  0.0000  0.0000 </r>
       </set>
       <set comment="band 9">
        <r>  0.0074  0.0001  0.0000  0.0000  0.2536  0.0000  0.1475  0.0000  0.2690 </r>
        <r>  0.0010  0.0277  0.0016  0.0449  0.0000  0.0000  0.0000  0.0000  0.0000 </r>
        <r>  0.0010  0.0277  0.0016  0.0449  0.0000  0.0000  0.0000  0.0000  0.0000 </r>
       </set>
       <set comment="band 10">
        <r>  0.0074  0.0139  0.0000  0.0052  0.0464  0.0000  0.5214  0.0000  0.1099 </r>
        <r>  0.0006  0.0275  0.0274  0.0128  0.0000  0.0000  0.0000  0.0000  0.0000 </r>
        <r>  0.0006  0.0275  0.0274  0.0128  0.0000  0.0000  0.0000  0.0000  0.0000 </r>
       </set>
       <set comment="band 11">
        <r>  0.0246  0.0117  0.0000  0.0045  0.4757  0.0000  0.0544  0.0000  0.2307 </r>
        <r>  0.0023  0.0029  0.0262  0.0081  0.0000  0.0000  0.0000  0.0000  0.0000 </r>
        <r>  0.0023  0.0029  0.0262  0.0081  0.0000  0.0000  0.0000  0.0000  0.0000 </r>
       </set>
       <set comment="band 12">
        <r>  0.0000  0.0000  0.0020  0.0000  0.0000  0.1394  0.0000  0.3940  0.0000 </r>
        <r>  0.0076  0.0257  0.0088  0.0394  0.0000  0.0000  0.0000  0.0000  0.0000 </r>
        <r>  0.0076  0.0257  0.0088  0.0394  0.0000  0.0000  0.0000  0.0000  0.0000 </r>
       </set>
       <set comment="band 13">
        <r>  0.0000  0.0000  0.0016  0.0000  0.0000  0.3945  0.0000  0.1490  0.0000 </r>
        <r>  0.0208  0.0094  0.0755  0.0248  0.0000  0.0000  0.0000  0.0000  0.0000 </r>
        <r>  0.0208  0.0094  0.0755  0.0248  0.0000  0.0000  0.0000  0.0000  0.0000 </r>
       </set>
       <set comment="band 14">
        <r>  0.1320  0.0179  0.0000  0.0491  0.0234  0.0000  0.0105  0.0000  0.0695 </r>
        <r>  0.0001  0.0023  0.0278  0.0034  0.0000  0.0000  0.0000  0.0000  0.0000 </r>
        <r>  0.0001  0.0023  0.0278  0.0034  0.0000  0.0000  0.0000  0.0000  0.0000 </r>
       </set>
      </set>
      <set comment="kpoint 10">
       <set comment="band 1">
        <r>  0.0037  0.0239  0.0000  0.0333  0.0320  0.0000  0.0001  0.0000  0.0232 </r>
        <r>  0.3267  0.0001  0.0062  0.0000  0.0000  0.0000  0.0000  0.0000  0.0000 </r>
        <r>  0.3269  0.0001  0.0062  0.0000  0.0000  0.0000  0.0000  0.0000  0.0000 </r>
       </set>
       <set comment="band 2">
        <r>  0.0000  0.0000  0.0012  0.0000  0.0000  0.0490  0.0000  0.0725  0.0000 </r>
        <r>  0.3361  0.0001  0.0031  0.0001  0.0000  0.0000  0.0000  0.0000  0.0000 </r>
        <r>  0.3360  0.0001  0.0031  0.0001  0.0000  0.0000  0.0000  0.0000  0.0000 </r>
       </set>
       <set comment="band 3">
        <r>  0.0000  0.0000  0.0052  0.0000  0.0000  0.1909  0.0000  0.1715  0.0000 </r>
        <r>  0.0014  0.0682  0.0002  0.0892  0.0000  0.0000  0.0000  0.0000  0.0000 </r>
        <r>  0.0014  0.0682  0.0002  0.0892  0.0000  0.0000  0.0000  0.0000  0.0000 </r>
       </set>
       <set comment="band 4">
        <r>  0.1158  0.0140  0.0000  0.0182  0.0234  0.0000  0.0697  0.0000  0.0119 </r>
        <r>  0.0010  0.0457  0.0008  0.1278  0.0000  0.0000  0.0000  0.0000  0.0000 </r>
        <r>  0.0010  0.0457  0.0008  0.1278  0.0000  0.0000  0.0000  0.0000  0.0000 </r>
       </set>
       <set comment="band 5">
        <r>  0.0098  0.0426  0.0000  0.0147  0.1350  0.0000  0.0571  0.0000  0.0583 </r>
        <r>  0.0128  0.0514  0.0919  0.0171  0.0000  0.0000  0.0000  0.0000  0.0000 </r>
        <r>  0.0128  0.0514  0.0919  0.0171  0.0000  0.0000  0.0000  0.0000  0.0000 </r>
       </set>
       <set comment="band 6">
        <r>  0.0254  0.0245  0.0000  0.0604  0.0232  0.0000  0.0165  0.0000  0.0499 </r>
        <r>  0.0174  0.0806  0.0843  0.0298  0.0000  0.0000  0.0000  0.0000  0.0000 </r>
        <r>  0.0174  0.0806  0.0843  0.0298  0.0000  0.0000  0.0000  0.0000  0.0000 </r>
       </set>
       <set comment="band 7">
        <r>  0.0000  0.0000  0.0880  0.0000  0.0000  0.0674  0.0000  0.0296  0.0000 </r>
        <r>  0.0021  0.1084  0.0205  0.0916  0.0000  0.0000  0.0000  0.0000  0.0000 </r>
        <r>  0.0021  0.1084  0.0205  0.0916  0.0000  0.0000  0.0000  0.0000  0.0000 </r>
       </set>
       <set comment="band 8">
        <r>  0.0000  0.0000  0.0202  0.0000  0.0000  0.0930  0.0000  0.1433  0.0000 </r>
        <r>  0.0174  0.0142  0.1843  0.0176  0.0000  0.0000  0.0000  0.0000  0.0000 </r>
        <r>  0.0174  0.0142  0.1843  0.0176  0.0000  0.0000  0.0000  0.0000  0.0000 </r>
       </set>
       <set comment="band 9">
        <r>  0.0039  0.0023  0.0000  0.0065  0.3005  0.0000  0.0598  0.0000  0.3201 </r>
        <r>  0.0000  0.0395  0.0037  0.0253  0.0000  0.0000  0.0000  0.0000  0.0000 </r>
        <r>  0.0000  0.0395  0.0037  0.0253  0.0000  0.0000  0.0000  0.0000  0.0000 </r>
       </set>
       <set comment="band 10">
        <r>  0.0367  0.0018  0.0000  0.0007  0.0402  0.0000  0.7005  0.0000  0.0491 </r>
        <r>  0.0000  0.0133  0.0025  0.0204  0.0000  0.0000  0.0000  0.0000  0.0000 </r>
        <r>  0.0000  0.0133  0.0025  0.0204  0.0000  0.0000  0.0000  0.0000  0.0000 </r>
       </set>
       <set comment="band 11">
        <r>  0.0000  0.0000  0.0013  0.0000  0.0000  0.3129  0.0000  0.1959  0.0000 </r>
        <r>  0.0008  0.0487  0.0001  0.0299  0.0000  0.0000  0.0000  0.0000  0.0000 </r>
        <r>  0.0008  0.0487  0.0001  0.0299  0.0000  0.0000  0.0000  0.0000  0.0000 </r>
       </set>
       <set comment="band 12">
        <r>  0.0025  0.0104  0.0000  0.0214  0.2945  0.0000  0.0103  0.0000  0.3826 </r>
        <r>  0.0037  0.0009  0.0672  0.0012  0.0000  0.0000  0.0000  0.0000  0.0000 </r>
        <r>  0.0037  0.0009  0.0672  0.0012  0.0000  0.0000  0.0000  0.0000  0.0000 </r>
       </set>
       <set comment="band 13">
        <r>  0.0000  0.0000  0.0003  0.0000  0.0000  0.2357  0.0000  0.3392  0.0000 </r>
        <r>  0.0266  0.0010  0.0995  0.0019  0.0000  0.0000  0.0000  0.0000  0.0000 </r>
        <r>  0.0266  0.0010  0.0995  0.0019  0.0000  0.0000  0.0000  0.0000  0.0000 </r>
       </set>
       <set comment="band 14">
        <r>  0.1174  0.0533  0.0000  0.0641  0.0537  0.0000  0.0084  0.0000  0.0326 </r>
        <r>  0.0003  0.0020  0.0027  0.0043  0.0000  0.0000  0.0000  0.0000  0.0000 </r>
        <r>  0.0003  0.0020  0.0027  0.0043  0.0000  0.0000  0.0000  0.0000  0.0000 </r>
       </set>
      </set>
     </set>
    </set>
   </array>
  </projected>
 </calculation>
 <structure name="finalpos" >
  <crystal>
   <varray name="basis" >
    <v>       3.19031573       0.00000000       0.00000000 </v>
    <v>      -1.59515786       2.76289447       0.00000000 </v>
    <v>       0.00000000       0.00000000      26.87900430 </v>
   </varray>
   <i name="volume">    236.92513614 </i>
   <varray name="rec_basis" >
    <v>       0.31344860       0.18096963       0.00000000 </v>
    <v>       0.00000000       0.36193927       0.00000000 </v>
    <v>       0.00000000       0.00000000       0.03720376 </v>
   </varray>
  </crystal>
  <varray name="positions" >
   <v>       0.33333300       0.66666700       0.13838872 </v>
   <v>       0.66666700       0.33333300       0.08016914 </v>
   <v>       0.66666600       0.33333300       0.19660830 </v>
  </varray>
 </structure>
</modeling>
