    3    3    1    1
  0.7897505E+02  0.3190316E-09  0.3190316E-09  0.2687900E-08  0.5000000E-15
  1.000000000000000E-004
  CAR 
 unknown system                          
     18     10     14
 
  0.0000000E+00  0.0000000E+00  0.0000000E+00  0.1562500E-01
    1      -17.463478   1.000000
    2      -16.255411   1.000000
    3       -8.984374   1.000000
    4       -6.023590   1.000000
    5       -6.023584   1.000000
    6       -5.162255   1.000000
    7       -4.918043   1.000000
    8       -4.918011   1.000000
    9       -3.441874   1.000000
   10       -0.670364   0.000000
   11       -0.670334   0.000000
   12       -0.446616   0.000000
   13       -0.446602   0.000000
   14        1.992053   0.000000
 
  0.1250000E+00  0.0000000E+00  0.0000000E+00  0.9375000E-01
    1      -17.249329   1.000000
    2      -16.153025   1.000000
    3       -8.739842   1.000000
    4       -6.487011   1.000000
    5       -5.970335   1.000000
    6       -5.789169   1.000000
    7       -5.253773   1.000000
    8       -4.484772   1.000000
    9       -3.580296   1.000000
   10       -0.950385   0.000000
   11       -0.884585   0.000000
   12       -0.683206   0.000000
   13       -0.315554   0.000000
   14        2.360931   0.000000
 
  0.2500000E+00  0.0000000E+00  0.0000000E+00  0.9375000E-01
    1      -16.680591   1.000000
    2      -15.884265   1.000000
    3       -8.373751   1.000000
    4       -7.213567   1.000000
    5       -6.951184   1.000000
    6       -5.888801   1.000000
    7       -5.202086   1.000000
    8       -4.736355   1.000000
    9       -4.148255   1.000000
   10       -1.274500   0.000000
   11       -1.097934   0.000000
   12       -0.555830   0.000000
   13        0.301418   0.000000
   14        3.177828   0.000000
 
  0.3750000E+00  0.0000000E+00  0.0000000E+00  0.9375000E-01
    1      -16.005478   1.000000
    2      -15.575837   1.000000
    3       -8.811001   1.000000
    4       -7.818559   1.000000
    5       -7.346406   1.000000
    6       -6.386137   1.000000
    7       -5.145658   1.000000
    8       -4.611575   1.000000
    9       -4.343457   1.000000
   10       -1.279372   0.000000
   11       -1.000504   0.000000
   12        0.162687   0.000000
   13        0.694747   0.000000
   14        3.701716   0.000000
 
  0.5000000E+00  0.0000000E+00  0.0000000E+00  0.4687500E-01
    1      -15.677221   1.000000
    2      -15.432514   1.000000
    3       -9.143651   1.000000
    4       -8.183482   1.000000
    5       -7.472712   1.000000
    6       -6.566716   1.000000
    7       -5.284512   1.000000
    8       -4.384494   1.000000
    9       -4.062673   1.000000
   10       -1.257053   0.000000
   11       -0.741113   0.000000
   12        0.461274   0.000000
   13        0.810172   0.000000
   14        2.740564   0.000000
 
  0.1250000E+00  0.1250000E+00  0.0000000E+00  0.9375000E-01
    1      -16.856518   1.000000
    2      -15.966017   1.000000
    3       -8.392577   1.000000
    4       -7.051004   1.000000
    5       -6.532497   1.000000
    6       -6.067616   1.000000
    7       -5.449698   1.000000
    8       -4.350297   1.000000
    9       -3.952186   1.000000
   10       -1.349629   0.000000
   11       -0.971449   0.000000
   12       -0.959653   0.000000
   13        0.279297   0.000000
   14        2.955648   0.000000
 
  0.2500000E+00  0.1250000E+00  0.0000000E+00  0.1875000E+00
    1      -16.222930   1.000000
    2      -15.667482   1.000000
    3       -8.455329   1.000000
    4       -7.477722   1.000000
    5       -7.214581   1.000000
    6       -6.571918   1.000000
    7       -5.350258   1.000000
    8       -4.712511   1.000000
    9       -4.235821   1.000000
   10       -1.432972   0.000000
   11       -0.984492   0.000000
   12       -0.489680   0.000000
   13        0.787130   0.000000
   14        3.928694   0.000000
 
  0.3750000E+00  0.1250000E+00  0.0000000E+00  0.1875000E+00
    1      -15.692455   1.000000
    2      -15.423564   1.000000
    3       -8.856297   1.000000
    4       -8.240753   1.000000
    5       -7.344969   1.000000
    6       -6.588727   1.000000
    7       -5.335084   1.000000
    8       -5.194334   1.000000
    9       -3.908951   1.000000
   10       -1.238209   0.000000
   11       -0.727897   0.000000
   12        0.132004   0.000000
   13        0.820830   0.000000
   14        3.267405   0.000000
 
  0.2500000E+00  0.2500000E+00  0.0000000E+00  0.9375000E-01
    1      -15.707416   1.000000
    2      -15.414567   1.000000
    3       -8.495917   1.000000
    4       -8.291551   1.000000
    5       -7.017796   1.000000
    6       -6.637032   1.000000
    7       -6.317907   1.000000
    8       -5.060882   1.000000
    9       -3.937783   1.000000
   10       -1.289220   0.000000
   11       -0.678183   0.000000
   12       -0.366539   0.000000
   13        1.108883   0.000000
   14        4.099754   0.000000
 
  0.3750000E+00  0.2500000E+00  0.0000000E+00  0.9375000E-01
    1      -15.472529   1.000000
    2      -15.295410   1.000000
    3       -8.675979   1.000000
    4       -8.326893   1.000000
    5       -7.302153   1.000000
    6       -6.639553   1.000000
    7       -6.409387   1.000000
    8       -5.447171   1.000000
    9       -3.570352   1.000000
   10       -1.614869   0.000000
   11       -0.308176   0.000000
   12       -0.127580   0.000000
   13        1.254186   0.000000
   14        3.510347   0.000000
