 vasp.5.4.4.18Apr17-6-g9f103f2a35 (build Jun 30 2017 11:15:00) complex          
  
 executed on    STALLO_VASP_5.4.4 date 2019.11.08  11:59:21
 running on    4 total cores
 distrk:  each k-point on    4 cores,    1 groups
 distr:  one band on NCORES_PER_BAND=   2 cores,    2 groups


--------------------------------------------------------------------------------------------------------


 INCAR:
 POTCAR:   PAW_PBE Mo 08Apr2002                   
 POTCAR:    PAW_PBE S 17Jan2003                   
 POTCAR:   PAW_PBE Mo 08Apr2002                   
   VRHFIN =Mo: 4p5s4d                                                           
   LEXCH  = PE                                                                  
   EATOM  =   217.5180 eV,   15.9871 Ry                                         
                                                                                
   TITEL  = PAW_PBE Mo 08Apr2002                                                
   LULTRA =        F    use ultrasoft PP ?                                      
   IUNSCR =        1    unscreen: 0-lin 1-nonlin 2-no                           
   RPACOR =    2.200    partial core radius                                     
   POMASS =   95.940; ZVAL   =    6.000    mass and valenz                      
   RCORE  =    2.750    outmost cutoff radius                                   
   RWIGS  =    2.750; RWIGS  =    1.455    wigner-seitz radius (au A)           
   ENMAX  =  224.584; ENMIN  =  168.438 eV                                      
   RCLOC  =    2.111    cutoff for local pot                                    
   LCOR   =        T    correct aug charges                                     
   LPAW   =        T    paw PP                                                  
   EAUG   =  345.278                                                            
   DEXC   =    -.088                                                            
   RMAX   =    3.077    core radius for proj-oper                               
   RAUG   =    1.300    factor for augmentation sphere                          
   RDEP   =    2.815    radius for radial grids                                 
   QCUT   =   -4.063; QGAM   =    8.126    optimization parameters              
                                                                                
   Description                                                                  
     l     E      TYP  RCUT    TYP  RCUT                                        
     2   .000     23  2.500                                                     
     2   .000     23  2.500                                                     
     0   .000     23  2.600                                                     
     0  1.000     23  2.600                                                     
     1   .400     23  2.750                                                     
     1  2.000     23  2.750                                                     
     3   .000      7   .000                                                     
  local pseudopotential read in
  partial core-charges read in
  atomic valenz-charges read in
  non local Contribution for L=           2  read in
    real space projection operators read in
  non local Contribution for L=           2  read in
    real space projection operators read in
  non local Contribution for L=           0  read in
    real space projection operators read in
  non local Contribution for L=           0  read in
    real space projection operators read in
  non local Contribution for L=           1  read in
    real space projection operators read in
  non local Contribution for L=           1  read in
    real space projection operators read in
    PAW grid and wavefunctions read in
 
   number of l-projection  operators is LMAX  =           6
   number of lm-projection operators is LMMAX =          18
 
 POTCAR:    PAW_PBE S 17Jan2003                   
   VRHFIN =S : s2p4                                                             
   LEXCH  = PE                                                                  
   EATOM  =   276.8230 eV,   20.3459 Ry                                         
                                                                                
   TITEL  = PAW_PBE S 17Jan2003                                                 
   LULTRA =        F    use ultrasoft PP ?                                      
   IUNSCR =        1    unscreen: 0-lin 1-nonlin 2-no                           
   RPACOR =    1.500    partial core radius                                     
   POMASS =   32.066; ZVAL   =    6.000    mass and valenz                      
   RCORE  =    1.900    outmost cutoff radius                                   
   RWIGS  =    2.200; RWIGS  =    1.164    wigner-seitz radius (au A)           
   ENMAX  =  280.000; ENMIN  =  194.016 eV                                      
   ICORE  =        2    local potential                                         
   LCOR   =        T    correct aug charges                                     
   LPAW   =        T    paw PP                                                  
   EAUG   =  335.092                                                            
   DEXC   =     .000                                                            
   RMAX   =    2.867    core radius for proj-oper                               
   RAUG   =    1.300    factor for augmentation sphere                          
   RDEP   =    1.954    radius for radial grids                                 
   QCUT   =   -4.360; QGAM   =    8.721    optimization parameters              
                                                                                
   Description                                                                  
     l     E      TYP  RCUT    TYP  RCUT                                        
     0   .000     23  1.900                                                     
     0   .000     23  1.900                                                     
     1   .000     23  1.900                                                     
     1   .000     23  1.900                                                     
     2   .000     23  1.900                                                     
  local pseudopotential read in
  partial core-charges read in
  atomic valenz-charges read in
  non local Contribution for L=           0  read in
    real space projection operators read in
  non local Contribution for L=           0  read in
    real space projection operators read in
  non local Contribution for L=           1  read in
    real space projection operators read in
  non local Contribution for L=           1  read in
    real space projection operators read in
    PAW grid and wavefunctions read in
 
   number of l-projection  operators is LMAX  =           4
   number of lm-projection operators is LMMAX =           8
 
 PAW_PBE Mo 08Apr2002                   :
 energy of atom  1       EATOM= -217.5180
 kinetic energy error for atom=    0.0004 (will be added to EATOM!!)
  PAW_PBE S 17Jan2003                   :
 energy of atom  2       EATOM= -276.8230
 kinetic energy error for atom=    0.0007 (will be added to EATOM!!)
 
 
 POSCAR: MoS2_mp-2815_computed                   
  positions in cartesian coordinates
  velocities in cartesian coordinates
  No initial velocities read in
 exchange correlation table for  LEXCH =        8
   RHO(1)=    0.500       N(1)  =     2000
   RHO(2)=  100.500       N(2)  =     4000
 


--------------------------------------------------------------------------------------------------------


 ion  position               nearest neighbor table
   1  0.333  0.667  0.138-   3 2.42   2 2.42   2 2.42   3 2.42   3 2.42   2 2.42
   2  0.667  0.333  0.080-   1 2.42   1 2.42   1 2.42
   3  0.667  0.333  0.197-   1 2.42   1 2.42   1 2.42
 
  LATTYP: Found a hexagonal cell.
 ALAT       =     3.1903157300
 C/A-ratio  =     8.4251862746
  
  Lattice vectors:
  
 A1 = (   3.1903157300,   0.0000000000,   0.0000000000)
 A2 = (  -1.5951578650,   2.7628944683,   0.0000000000)
 A3 = (   0.0000000000,   0.0000000000,  26.8790043000)


Analysis of symmetry for initial positions (statically):
=====================================================================
 Subroutine PRICEL returns:
 Original cell was already a primitive cell.
 

 Routine SETGRP: Setting up the symmetry group for a 
 hexagonal supercell.


 Subroutine GETGRP returns: Found 12 space group operations
 (whereof  6 operations were pure point group operations)
 out of a pool of 24 trial point group operations.


The static configuration has the point symmetry C_3v.
 The point group associated with its full space group is D_3h.


Analysis of symmetry for dynamics (positions and initial velocities):
=====================================================================
 Subroutine PRICEL returns:
 Original cell was already a primitive cell.
 

 Routine SETGRP: Setting up the symmetry group for a 
 hexagonal supercell.


 Subroutine GETGRP returns: Found 12 space group operations
 (whereof  6 operations were pure point group operations)
 out of a pool of 24 trial point group operations.


The dynamic configuration has the point symmetry C_3v.
 The point group associated with its full space group is D_3h.


 Subroutine INISYM returns: Found 12 space group operations
 (whereof  6 operations are pure point group operations),
 and found     1 'primitive' translations

 
 
 KPOINTS: k-density: 4.0                          

Automatic generation of k-mesh.
Space group operators:
 irot       det(A)        alpha          n_x          n_y          n_z        tau_x        tau_y        tau_z
    1     1.000000     0.000001     1.000000     0.000000     0.000000     0.000000     0.000000     0.000000
    2     1.000000   120.000000     0.000000     0.000000    -1.000000     0.000000     0.000000     0.000000
    3     1.000000   120.000000     0.000000     0.000000     1.000000     0.000000     0.000000     0.000000
    4    -1.000000   179.999999     1.000000    -0.000000     0.000000     0.000000     0.000000     0.000000
    5    -1.000000   180.000000     0.500000    -0.866025     0.000000     0.000000     0.000000     0.000000
    6    -1.000000   180.000000    -0.500000    -0.866025     0.000000     0.000000     0.000000     0.000000
    7    -1.000000    60.000000     0.000000     0.000000    -1.000000    -0.000000     0.000000     0.276777
    8    -1.000000   180.000000     0.000000     0.000000     1.000000     0.000000     0.000000     0.276777
    9    -1.000000    60.000000     0.000000     0.000000     1.000000     0.000000     0.000001     0.276777
   10     1.000000   180.000000     0.866025    -0.500000     0.000000     0.000000     0.000000     0.276777
   11     1.000000   180.000000     0.000000     1.000000     0.000000     0.000000     0.000000     0.276777
   12     1.000000   179.999999     0.866025     0.500000     0.000000    -0.000000     0.000001     0.276777
 
 Subroutine IBZKPT returns following result:
 ===========================================
 
 Found     10 irreducible k-points:
 
 Following reciprocal coordinates:
            Coordinates               Weight
  0.000000  0.000000  0.000000      1.000000
  0.125000  0.000000  0.000000      6.000000
  0.250000  0.000000  0.000000      6.000000
  0.375000  0.000000  0.000000      6.000000
  0.500000  0.000000  0.000000      3.000000
  0.125000  0.125000  0.000000      6.000000
  0.250000  0.125000  0.000000     12.000000
  0.375000  0.125000  0.000000     12.000000
  0.250000  0.250000  0.000000      6.000000
  0.375000  0.250000  0.000000      6.000000
 
 Following cartesian coordinates:
            Coordinates               Weight
  0.000000  0.000000  0.000000      1.000000
  0.039181  0.022621  0.000000      6.000000
  0.078362  0.045242  0.000000      6.000000
  0.117543  0.067864  0.000000      6.000000
  0.156724  0.090485  0.000000      3.000000
  0.039181  0.067864  0.000000      6.000000
  0.078362  0.090485  0.000000     12.000000
  0.117543  0.113106  0.000000     12.000000
  0.078362  0.135727  0.000000      6.000000
  0.117543  0.158348  0.000000      6.000000
 
 TETIRR: Found     36 inequivalent tetrahedra from      384


--------------------------------------------------------------------------------------------------------




 Dimension of arrays:
   k-points           NKPTS =     10   k-points in BZ     NKDIM =     10   number of bands    NBANDS=     14
   number of dos      NEDOS =    301   number of ions     NIONS =      3
   non local maximal  LDIM  =      6   non local SUM 2l+1 LMDIM =     18
   total plane-waves  NPLWV = 103680
   max r-space proj   IRMAX =      1   max aug-charges    IRDMAX=  28292
   dimension x,y,z NGX =    24 NGY =   24 NGZ =  180
   dimension x,y,z NGXF=    48 NGYF=   48 NGZF=  360
   support grid    NGXF=    48 NGYF=   48 NGZF=  360
   ions per type =               1   2
   NGX,Y,Z   is equivalent  to a cutoff of  12.51, 12.51, 11.13 a.u.
   NGXF,Y,Z  is equivalent  to a cutoff of  25.01, 25.01, 22.27 a.u.

 SYSTEM =  unknown system                          
 POSCAR =  MoS2_mp-2815_computed                   

 Startparameter for this run:
   NWRITE =      2    write-flag & timer
   PREC   = normal    normal or accurate (medium, high low for compatibility)
   ISTART =      0    job   : 0-new  1-cont  2-samecut
   ICHARG =      2    charge: 1-file 2-atom 10-const
   ISPIN  =      1    spin polarized calculation?
   LNONCOLLINEAR =      F non collinear calculations
   LSORBIT =      F    spin-orbit coupling
   INIWAV =      1    electr: 0-lowe 1-rand  2-diag
   LASPH  =      F    aspherical Exc in radial PAW
   METAGGA=      F    non-selfconsistent MetaGGA calc.

 Electronic Relaxation 1
   ENCUT  =  700.0 eV  51.45 Ry    7.17 a.u.   6.88  6.88 57.99*2*pi/ulx,y,z
   ENINI  =  700.0     initial cutoff
   ENAUG  =  345.3 eV  augmentation charge cutoff
   NELM   =     60;   NELMIN=  4; NELMDL= -5     # of ELM steps 
   EDIFF  = 0.1E-04   stopping-criterion for ELM
   LREAL  =      F    real-space projection
   NLSPLINE    = F    spline interpolate recip. space projectors
   LCOMPAT=      F    compatible to vasp.4.4
   GGA_COMPAT  = T    GGA compatible to vasp.4.4-vasp.4.6
   LMAXPAW     = -100 max onsite density
   LMAXMIX     =    2 max onsite mixed and CHGCAR
   VOSKOWN=      0    Vosko Wilk Nusair interpolation
   ROPT   =    0.00000   0.00000
 Ionic relaxation
   EDIFFG = 0.1E-03   stopping-criterion for IOM
   NSW    =      0    number of steps for IOM
   NBLOCK =      1;   KBLOCK =      1    inner block; outer block 
   IBRION =     -1    ionic relax: 0-MD 1-quasi-New 2-CG
   NFREE  =      0    steps in history (QN), initial steepest desc. (CG)
   ISIF   =      2    stress and relaxation
   IWAVPR =     10    prediction:  0-non 1-charg 2-wave 3-comb
   ISYM   =      2    0-nonsym 1-usesym 2-fastsym
   LCORR  =      T    Harris-Foulkes like correction to forces

   POTIM  = 0.5000    time-step for ionic-motion
   TEIN   =    0.0    initial temperature
   TEBEG  =    0.0;   TEEND  =   0.0 temperature during run
   SMASS  =  -3.00    Nose mass-parameter (am)
   estimated Nose-frequenzy (Omega)   =  0.10E-29 period in steps =****** mass=  -0.233E-27a.u.
   SCALEE = 1.0000    scale energy and forces
   NPACO  =    256;   APACO  = 16.0  distance and # of slots for P.C.
   PSTRESS=    0.0 pullay stress

  Mass of Ions in am
   POMASS =  95.94 32.07
  Ionic Valenz
   ZVAL   =   6.00  6.00
  Atomic Wigner-Seitz radii
   RWIGS  =  -1.00 -1.00
  virtual crystal weights 
   VCA    =   1.00  1.00
   NELECT =      18.0000    total number of electrons
   NUPDOWN=      -1.0000    fix difference up-down

 DOS related values:
   EMIN   =  10.00;   EMAX   =-10.00  energy-range for DOS
   EFERMI =   0.00
   ISMEAR =    -5;   SIGMA  =   0.20  broadening in eV -4-tet -1-fermi 0-gaus

 Electronic relaxation 2 (details)
   IALGO  =     68    algorithm
   LDIAG  =      T    sub-space diagonalisation (order eigenvalues)
   LSUBROT=      F    optimize rotation matrix (better conditioning)
   TURBO    =      0    0=normal 1=particle mesh
   IRESTART =      0    0=no restart 2=restart with 2 vectors
   NREBOOT  =      0    no. of reboots
   NMIN     =      0    reboot dimension
   EREF     =   0.00    reference energy to select bands
   IMIX   =      4    mixing-type and parameters
     AMIX     =   0.40;   BMIX     =  1.00
     AMIX_MAG =   1.60;   BMIX_MAG =  1.00
     AMIN     =   0.10
     WC   =   100.;   INIMIX=   1;  MIXPRE=   1;  MAXMIX= -45

 Intra band minimization:
   WEIMIN = 0.0000     energy-eigenvalue tresh-hold
   EBREAK =  0.18E-06  absolut break condition
   DEPER  =   0.30     relativ break condition  

   TIME   =   0.40     timestep for ELM

  volume/ion in A,a.u.               =      78.98       532.95
  Fermi-wavevector in a.u.,A,eV,Ry     =   0.693365  1.310270  6.541070  0.480755
  Thomas-Fermi vector in A             =   1.775558
 
 Write flags
   LWAVE        =      F    write WAVECAR
   LDOWNSAMPLE  =      F    k-point downsampling of WAVECAR
   LCHARG       =      T    write CHGCAR
   LVTOT        =      F    write LOCPOT, total local potential
   LVHAR        =      F    write LOCPOT, Hartree potential only
   LELF         =      F    write electronic localiz. function (ELF)
   LORBIT       =      0    0 simple, 1 ext, 2 COOP (PROOUT), +10 PAW based schemes


 Dipole corrections
   LMONO  =      F    monopole corrections only (constant potential shift)
   LDIPOL =      F    correct potential (dipole corrections)
   IDIPOL =      0    1-x, 2-y, 3-z, 4-all directions 
   EPSILON=  1.0000000 bulk dielectric constant

 Exchange correlation treatment:
   GGA     =    --    GGA type
   LEXCH   =     8    internal setting for exchange type
   VOSKOWN=      0    Vosko Wilk Nusair interpolation
   LHFCALC =     F    Hartree Fock is set to
   LHFONE  =     F    Hartree Fock one center treatment
   AEXX    =    0.0000 exact exchange contribution

 Linear response parameters
   LEPSILON=     F    determine dielectric tensor
   LRPA    =     F    only Hartree local field effects (RPA)
   LNABLA  =     F    use nabla operator in PAW spheres
   LVEL    =     F    velocity operator in full k-point grid
   LINTERFAST=   F  fast interpolation
   KINTER  =     0    interpolate to denser k-point grid
   CSHIFT  =0.1000    complex shift for real part using Kramers Kronig
   OMEGAMAX=  -1.0    maximum frequency
   DEG_THRESHOLD= 0.2000000E-02 threshold for treating states as degnerate
   RTIME   =   -0.100 relaxation time in fs
  (WPLASMAI=    0.000 imaginary part of plasma frequency in eV, 0.658/RTIME)
   DFIELD  = 0.0000000 0.0000000 0.0000000 field for delta impulse in time
 
 Orbital magnetization related:
   ORBITALMAG=     F  switch on orbital magnetization
   LCHIMAG   =     F  perturbation theory with respect to B field
   DQ        =  0.001000  dq finite difference perturbation B field
   LLRAUG    =     F  two centre corrections for induced B field



--------------------------------------------------------------------------------------------------------


 Static calculation
 charge density and potential will be updated during run
 non-spin polarized calculation
 RMM-DIIS sequential band-by-band and
  variant of blocked Davidson during initial phase
 perform sub-space diagonalisation
    before iterative eigenvector-optimisation
 modified Broyden-mixing scheme, WC =      100.0
 initial mixing is a Kerker type mixing with AMIX =  0.4000 and BMIX =      1.0000
 Hartree-type preconditioning will be used
 using additional bands            5
 reciprocal scheme for non local part
 use partial core corrections
 calculate Harris-corrections to forces 
   (improved forces if not selfconsistent)
 use gradient corrections 
 use of overlap-Matrix (Vanderbilt PP)
 Fermi weights with tetrahedron method with Bloechl corrections


--------------------------------------------------------------------------------------------------------


  energy-cutoff  :      700.00
  volume of cell :      236.93
      direct lattice vectors                 reciprocal lattice vectors
     3.190315730  0.000000000  0.000000000     0.313448600  0.180969634  0.000000000
    -1.595157865  2.762894468  0.000000000     0.000000000  0.361939267  0.000000000
     0.000000000  0.000000000 26.879004300     0.000000000  0.000000000  0.037203759

  length of vectors
     3.190315730  3.190315730 26.879004300     0.361939267  0.361939267  0.037203759


 
 k-points in units of 2pi/SCALE and weight: k-density: 4.0                          
   0.00000000  0.00000000  0.00000000       0.016
   0.03918108  0.02262120  0.00000000       0.094
   0.07836215  0.04524241  0.00000000       0.094
   0.11754323  0.06786361  0.00000000       0.094
   0.15672430  0.09048482  0.00000000       0.047
   0.03918108  0.06786361  0.00000000       0.094
   0.07836215  0.09048482  0.00000000       0.188
   0.11754323  0.11310602  0.00000000       0.188
   0.07836215  0.13572723  0.00000000       0.094
   0.11754323  0.15834843  0.00000000       0.094
 
 k-points in reciprocal lattice and weights: k-density: 4.0                          
   0.00000000  0.00000000  0.00000000       0.016
   0.12500000  0.00000000  0.00000000       0.094
   0.25000000  0.00000000  0.00000000       0.094
   0.37500000  0.00000000  0.00000000       0.094
   0.50000000  0.00000000  0.00000000       0.047
   0.12500000  0.12500000  0.00000000       0.094
   0.25000000  0.12500000  0.00000000       0.188
   0.37500000  0.12500000  0.00000000       0.188
   0.25000000  0.25000000  0.00000000       0.094
   0.37500000  0.25000000  0.00000000       0.094
 
 position of ions in fractional coordinates (direct lattice) 
   0.33333300  0.66666700  0.13838872
   0.66666700  0.33333300  0.08016914
   0.66666600  0.33333300  0.19660830
 
 position of ions in cartesian coordinates  (Angst):
  -0.00000160  1.84193057  3.71975108
   1.59515946  0.92096390  2.15486668
   1.59515627  0.92096390  5.28463547
 


--------------------------------------------------------------------------------------------------------


 k-point  1 :   0.0000 0.0000 0.0000  plane waves:    9859
 k-point  2 :   0.1250 0.0000 0.0000  plane waves:    9892
 k-point  3 :   0.2500 0.0000 0.0000  plane waves:    9958
 k-point  4 :   0.3750 0.0000 0.0000  plane waves:    9998
 k-point  5 :   0.5000 0.0000 0.0000  plane waves:    9990
 k-point  6 :   0.1250 0.1250 0.0000  plane waves:    9915
 k-point  7 :   0.2500 0.1250 0.0000  plane waves:    9979
 k-point  8 :   0.3750 0.1250 0.0000  plane waves:    9976
 k-point  9 :   0.2500 0.2500 0.0000  plane waves:    9967
 k-point 10 :   0.3750 0.2500 0.0000  plane waves:    9975

 maximum and minimum number of plane-waves per node :      5012     4928

 maximum number of plane-waves:      9998
 maximum index in each direction: 
   IXMAX=    6   IYMAX=    6   IZMAX=   57
   IXMIN=   -7   IYMIN=   -7   IZMIN=  -57


 parallel 3D FFT for wavefunctions:
    minimum data exchange during FFTs selected (reduces bandwidth)
 parallel 3D FFT for charge:
    minimum data exchange during FFTs selected (reduces bandwidth)


 total amount of memory used by VASP MPI-rank0    72641. kBytes
=======================================================================

   base      :      30000. kBytes
   nonl-proj :      14675. kBytes
   fftplans  :       8557. kBytes
   grid      :      13736. kBytes
   one-center:         31. kBytes
   wavefun   :       5642. kBytes
 
     INWAV:  cpu time    0.0000: real time    0.0000
 Broyden mixing: mesh for mixing (old mesh)
   NGX = 13   NGY = 13   NGZ =115
  (NGX  = 48   NGY  = 48   NGZ  =360)
  gives a total of  19435 points

 initial charge density was supplied:
 charge density of overlapping atoms calculated
 number of electron      18.0000000 magnetization 
 keeping initial charge density in first step


--------------------------------------------------------------------------------------------------------


 Maximum index for augmentation-charges         6859 (set IRDMAX)


--------------------------------------------------------------------------------------------------------


 First call to EWALD:  gamma=   0.286
 Maximum number of real-space cells 6x 6x 1
 Maximum number of reciprocal cells 2x 2x10

    FEWALD:  cpu time    0.0020: real time    0.0015


--------------------------------------- Iteration      1(   1)  ---------------------------------------


    POTLOK:  cpu time    0.1330: real time    0.1388
    SETDIJ:  cpu time    0.0040: real time    0.0048
     EDDAV:  cpu time    0.5829: real time    0.5867
 BZINTS: Fermi energy:  7.536905; 18.000000 electrons
         Band energy:  10.027502;  BLOECHL correction: -0.219808
       DOS:  cpu time    0.0010: real time    0.0011
    --------------------------------------------
      LOOP:  cpu time    0.7209: real time    0.7314

 eigenvalue-minimisations  :   280
 total energy-change (2. order) : 0.1534814E+03  (-0.6895094E+03)
 number of electron      18.0000000 magnetization 
 augmentation part       18.0000000 magnetization 

 Free energy of the ion-electron system (eV)
  ---------------------------------------------------
  alpha Z        PSCENC =        12.51390764
  Ewald energy   TEWEN  =      4286.25630342
  -Hartree energ DENC   =     -4967.71356795
  -exchange      EXHF   =         0.00000000
  -V(xc)+E(xc)   XCENC  =       -36.31055783
  PAW double counting   =       406.88651198     -329.34073203
  entropy T*S    EENTRO =         0.00000000
  eigenvalues    EBANDS =        10.02750166
  atomic energy  EATOM  =       771.16207120
  Solvation  Ediel_sol  =         0.00000000
  ---------------------------------------------------
  free energy    TOTEN  =       153.48143809 eV

  energy without entropy =      153.48143809  energy(sigma->0) =      153.48143809


--------------------------------------------------------------------------------------------------------




--------------------------------------- Iteration      1(   2)  ---------------------------------------


     EDDAV:  cpu time    0.9059: real time    0.9071
 BZINTS: Fermi energy: -1.529170; 18.000000 electrons
         Band energy:-147.839722;  BLOECHL correction:  0.000000
       DOS:  cpu time    0.0000: real time    0.0003
    --------------------------------------------
      LOOP:  cpu time    0.9059: real time    0.9074

 eigenvalue-minimisations  :   510
 total energy-change (2. order) :-0.1578672E+03  (-0.1504694E+03)
 number of electron      18.0000000 magnetization 
 augmentation part       18.0000000 magnetization 

 Free energy of the ion-electron system (eV)
  ---------------------------------------------------
  alpha Z        PSCENC =        12.51390764
  Ewald energy   TEWEN  =      4286.25630342
  -Hartree energ DENC   =     -4967.71356795
  -exchange      EXHF   =         0.00000000
  -V(xc)+E(xc)   XCENC  =       -36.31055783
  PAW double counting   =       406.88651198     -329.34073203
  entropy T*S    EENTRO =         0.00000000
  eigenvalues    EBANDS =      -147.83972162
  atomic energy  EATOM  =       771.16207120
  Solvation  Ediel_sol  =         0.00000000
  ---------------------------------------------------
  free energy    TOTEN  =        -4.38578518 eV

  energy without entropy =       -4.38578518  energy(sigma->0) =       -4.38578518


--------------------------------------------------------------------------------------------------------




--------------------------------------- Iteration      1(   3)  ---------------------------------------


     EDDAV:  cpu time    0.7249: real time    0.7264
 BZINTS: Fermi energy: -3.272191; 18.000000 electrons
         Band energy:-166.450987;  BLOECHL correction:  0.000000
       DOS:  cpu time    0.0000: real time    0.0003
    --------------------------------------------
      LOOP:  cpu time    0.7249: real time    0.7267

 eigenvalue-minimisations  :   382
 total energy-change (2. order) :-0.1861127E+02  (-0.1840656E+02)
 number of electron      18.0000000 magnetization 
 augmentation part       18.0000000 magnetization 

 Free energy of the ion-electron system (eV)
  ---------------------------------------------------
  alpha Z        PSCENC =        12.51390764
  Ewald energy   TEWEN  =      4286.25630342
  -Hartree energ DENC   =     -4967.71356795
  -exchange      EXHF   =         0.00000000
  -V(xc)+E(xc)   XCENC  =       -36.31055783
  PAW double counting   =       406.88651198     -329.34073203
  entropy T*S    EENTRO =         0.00000000
  eigenvalues    EBANDS =      -166.45098673
  atomic energy  EATOM  =       771.16207120
  Solvation  Ediel_sol  =         0.00000000
  ---------------------------------------------------
  free energy    TOTEN  =       -22.99705029 eV

  energy without entropy =      -22.99705029  energy(sigma->0) =      -22.99705029


--------------------------------------------------------------------------------------------------------




--------------------------------------- Iteration      1(   4)  ---------------------------------------


     EDDAV:  cpu time    0.6979: real time    0.6981
 BZINTS: Fermi energy: -3.356745; 18.000000 electrons
         Band energy:-166.852783;  BLOECHL correction:  0.000000
       DOS:  cpu time    0.0000: real time    0.0002
    --------------------------------------------
      LOOP:  cpu time    0.6979: real time    0.6984

 eigenvalue-minimisations  :   366
 total energy-change (2. order) :-0.4017967E+00  (-0.4002141E+00)
 number of electron      18.0000000 magnetization 
 augmentation part       18.0000000 magnetization 

 Free energy of the ion-electron system (eV)
  ---------------------------------------------------
  alpha Z        PSCENC =        12.51390764
  Ewald energy   TEWEN  =      4286.25630342
  -Hartree energ DENC   =     -4967.71356795
  -exchange      EXHF   =         0.00000000
  -V(xc)+E(xc)   XCENC  =       -36.31055783
  PAW double counting   =       406.88651198     -329.34073203
  entropy T*S    EENTRO =         0.00000000
  eigenvalues    EBANDS =      -166.85278338
  atomic energy  EATOM  =       771.16207120
  Solvation  Ediel_sol  =         0.00000000
  ---------------------------------------------------
  free energy    TOTEN  =       -23.39884695 eV

  energy without entropy =      -23.39884695  energy(sigma->0) =      -23.39884695


--------------------------------------------------------------------------------------------------------




--------------------------------------- Iteration      1(   5)  ---------------------------------------


     EDDAV:  cpu time    0.7089: real time    0.7121
 BZINTS: Fermi energy: -3.375393; 18.000000 electrons
         Band energy:-166.863791;  BLOECHL correction:  0.000000
       DOS:  cpu time    0.0000: real time    0.0002
    CHARGE:  cpu time    0.0530: real time    0.0532
    MIXING:  cpu time    0.0040: real time    0.0038
    --------------------------------------------
      LOOP:  cpu time    0.7659: real time    0.7693

 eigenvalue-minimisations  :   372
 total energy-change (2. order) :-0.1100722E-01  (-0.1100485E-01)
 number of electron      18.0000002 magnetization 
 augmentation part       -0.9448786 magnetization 

 Broyden mixing:
  rms(total) = 0.68887E+00    rms(broyden)= 0.68887E+00
  rms(prec ) = 0.74613E+00
  weight for this iteration     100.00

 Free energy of the ion-electron system (eV)
  ---------------------------------------------------
  alpha Z        PSCENC =        12.51390764
  Ewald energy   TEWEN  =      4286.25630342
  -Hartree energ DENC   =     -4967.71356795
  -exchange      EXHF   =         0.00000000
  -V(xc)+E(xc)   XCENC  =       -36.31055783
  PAW double counting   =       406.88651198     -329.34073203
  entropy T*S    EENTRO =         0.00000000
  eigenvalues    EBANDS =      -166.86379060
  atomic energy  EATOM  =       771.16207120
  Solvation  Ediel_sol  =         0.00000000
  ---------------------------------------------------
  free energy    TOTEN  =       -23.40985416 eV

  energy without entropy =      -23.40985416  energy(sigma->0) =      -23.40985416


--------------------------------------------------------------------------------------------------------




--------------------------------------- Iteration      1(   6)  ---------------------------------------


    POTLOK:  cpu time    0.1230: real time    0.1239
    SETDIJ:  cpu time    0.0050: real time    0.0039
    EDDIAG:  cpu time    0.1090: real time    0.1093
  RMM-DIIS:  cpu time    0.5259: real time    0.5257
    ORTHCH:  cpu time    0.0080: real time    0.0082
 BZINTS: Fermi energy: -4.363147; 18.000000 electrons
         Band energy:-167.356195;  BLOECHL correction:  0.000000
       DOS:  cpu time    0.0000: real time    0.0002
    CHARGE:  cpu time    0.0530: real time    0.0532
    MIXING:  cpu time    0.0040: real time    0.0036
    --------------------------------------------
      LOOP:  cpu time    0.8279: real time    0.8280

 eigenvalue-minimisations  :   295
 total energy-change (2. order) : 0.1160314E+01  (-0.5431865E+00)
 number of electron      18.0000002 magnetization 
 augmentation part       -0.3983083 magnetization 

 Broyden mixing:
  rms(total) = 0.26140E+00    rms(broyden)= 0.26140E+00
  rms(prec ) = 0.30707E+00
  weight for this iteration     100.00

 eigenvalues of (default mixing * dielectric matrix)
  average eigenvalue GAMMA=   0.8339
  0.8339

 Free energy of the ion-electron system (eV)
  ---------------------------------------------------
  alpha Z        PSCENC =        12.51390764
  Ewald energy   TEWEN  =      4286.25630342
  -Hartree energ DENC   =     -4966.05798624
  -exchange      EXHF   =         0.00000000
  -V(xc)+E(xc)   XCENC  =       -35.42324673
  PAW double counting   =       423.87809837     -347.22249261
  entropy T*S    EENTRO =         0.00000000
  eigenvalues    EBANDS =      -167.35619508
  atomic energy  EATOM  =       771.16207120
  Solvation  Ediel_sol  =         0.00000000
  ---------------------------------------------------
  free energy    TOTEN  =       -22.24954004 eV

  energy without entropy =      -22.24954004  energy(sigma->0) =      -22.24954004


--------------------------------------------------------------------------------------------------------




--------------------------------------- Iteration      1(   7)  ---------------------------------------


    POTLOK:  cpu time    0.1110: real time    0.1147
    SETDIJ:  cpu time    0.0050: real time    0.0038
    EDDIAG:  cpu time    0.1080: real time    0.1088
  RMM-DIIS:  cpu time    0.5199: real time    0.5190
    ORTHCH:  cpu time    0.0080: real time    0.0082
 BZINTS: Fermi energy: -3.801599; 18.000000 electrons
         Band energy:-161.206841;  BLOECHL correction:  0.000000
       DOS:  cpu time    0.0010: real time    0.0003
    CHARGE:  cpu time    0.0530: real time    0.0531
    MIXING:  cpu time    0.0030: real time    0.0036
    --------------------------------------------
      LOOP:  cpu time    0.8089: real time    0.8117

 eigenvalue-minimisations  :   292
 total energy-change (2. order) : 0.3851232E+00  (-0.5520210E-01)
 number of electron      18.0000002 magnetization 
 augmentation part       -0.5982144 magnetization 

 Broyden mixing:
  rms(total) = 0.14985E+00    rms(broyden)= 0.14985E+00
  rms(prec ) = 0.15819E+00
  weight for this iteration     100.00

 eigenvalues of (default mixing * dielectric matrix)
  average eigenvalue GAMMA=   1.3611
  0.6661  2.0561

 Free energy of the ion-electron system (eV)
  ---------------------------------------------------
  alpha Z        PSCENC =        12.51390764
  Ewald energy   TEWEN  =      4286.25630342
  -Hartree energ DENC   =     -4971.44746512
  -exchange      EXHF   =         0.00000000
  -V(xc)+E(xc)   XCENC  =       -35.56631800
  PAW double counting   =       441.26295182     -364.83902729
  entropy T*S    EENTRO =         0.00000000
  eigenvalues    EBANDS =      -161.20684053
  atomic energy  EATOM  =       771.16207120
  Solvation  Ediel_sol  =         0.00000000
  ---------------------------------------------------
  free energy    TOTEN  =       -21.86441686 eV

  energy without entropy =      -21.86441686  energy(sigma->0) =      -21.86441686


--------------------------------------------------------------------------------------------------------




--------------------------------------- Iteration      1(   8)  ---------------------------------------


    POTLOK:  cpu time    0.1110: real time    0.1121
    SETDIJ:  cpu time    0.0050: real time    0.0038
    EDDIAG:  cpu time    0.1080: real time    0.1084
  RMM-DIIS:  cpu time    0.5329: real time    0.5329
    ORTHCH:  cpu time    0.0090: real time    0.0082
 BZINTS: Fermi energy: -3.706413; 18.000000 electrons
         Band energy:-156.994351;  BLOECHL correction:  0.000000
       DOS:  cpu time    0.0000: real time    0.0002
    CHARGE:  cpu time    0.0530: real time    0.0534
    MIXING:  cpu time    0.0040: real time    0.0044
    --------------------------------------------
      LOOP:  cpu time    0.8229: real time    0.8234

 eigenvalue-minimisations  :   309
 total energy-change (2. order) : 0.5987753E-01  (-0.2334301E-01)
 number of electron      18.0000002 magnetization 
 augmentation part       -0.5513268 magnetization 

 Broyden mixing:
  rms(total) = 0.35571E-01    rms(broyden)= 0.35571E-01
  rms(prec ) = 0.37919E-01
  weight for this iteration     100.00

 eigenvalues of (default mixing * dielectric matrix)
  average eigenvalue GAMMA=   1.5006
  1.9185  1.9185  0.6648

 Free energy of the ion-electron system (eV)
  ---------------------------------------------------
  alpha Z        PSCENC =        12.51390764
  Ewald energy   TEWEN  =      4286.25630342
  -Hartree energ DENC   =     -4975.35566457
  -exchange      EXHF   =         0.00000000
  -V(xc)+E(xc)   XCENC  =       -35.29483365
  PAW double counting   =       464.73621642     -388.82818912
  entropy T*S    EENTRO =         0.00000000
  eigenvalues    EBANDS =      -156.99435066
  atomic energy  EATOM  =       771.16207120
  Solvation  Ediel_sol  =         0.00000000
  ---------------------------------------------------
  free energy    TOTEN  =       -21.80453933 eV

  energy without entropy =      -21.80453933  energy(sigma->0) =      -21.80453933


--------------------------------------------------------------------------------------------------------




--------------------------------------- Iteration      1(   9)  ---------------------------------------


    POTLOK:  cpu time    0.1130: real time    0.1159
    SETDIJ:  cpu time    0.0040: real time    0.0038
    EDDIAG:  cpu time    0.1070: real time    0.1063
  RMM-DIIS:  cpu time    0.5759: real time    0.5756
    ORTHCH:  cpu time    0.0080: real time    0.0082
 BZINTS: Fermi energy: -3.634398; 18.000000 electrons
         Band energy:-155.670753;  BLOECHL correction:  0.000000
       DOS:  cpu time    0.0000: real time    0.0002
    CHARGE:  cpu time    0.0530: real time    0.0532
    MIXING:  cpu time    0.0040: real time    0.0040
    --------------------------------------------
      LOOP:  cpu time    0.8649: real time    0.8672

 eigenvalue-minimisations  :   335
 total energy-change (2. order) : 0.4844676E-02  (-0.8802118E-03)
 number of electron      18.0000002 magnetization 
 augmentation part       -0.5460029 magnetization 

 Broyden mixing:
  rms(total) = 0.96134E-02    rms(broyden)= 0.96134E-02
  rms(prec ) = 0.11872E-01
  weight for this iteration     100.00

 eigenvalues of (default mixing * dielectric matrix)
  average eigenvalue GAMMA=   1.5064
  0.6672  1.0469  2.4330  1.8785

 Free energy of the ion-electron system (eV)
  ---------------------------------------------------
  alpha Z        PSCENC =        12.51390764
  Ewald energy   TEWEN  =      4286.25630342
  -Hartree energ DENC   =     -4976.64827575
  -exchange      EXHF   =         0.00000000
  -V(xc)+E(xc)   XCENC  =       -35.24024952
  PAW double counting   =       470.15295119     -394.32564942
  entropy T*S    EENTRO =         0.00000000
  eigenvalues    EBANDS =      -155.67075343
  atomic energy  EATOM  =       771.16207120
  Solvation  Ediel_sol  =         0.00000000
  ---------------------------------------------------
  free energy    TOTEN  =       -21.79969466 eV

  energy without entropy =      -21.79969466  energy(sigma->0) =      -21.79969466


--------------------------------------------------------------------------------------------------------




--------------------------------------- Iteration      1(  10)  ---------------------------------------


    POTLOK:  cpu time    0.1120: real time    0.1125
    SETDIJ:  cpu time    0.0040: real time    0.0038
    EDDIAG:  cpu time    0.1070: real time    0.1070
  RMM-DIIS:  cpu time    0.5829: real time    0.5827
    ORTHCH:  cpu time    0.0080: real time    0.0082
 BZINTS: Fermi energy: -3.577127; 18.000000 electrons
         Band energy:-154.546577;  BLOECHL correction:  0.000000
       DOS:  cpu time    0.0000: real time    0.0002
    CHARGE:  cpu time    0.0530: real time    0.0531
    MIXING:  cpu time    0.0050: real time    0.0042
    --------------------------------------------
      LOOP:  cpu time    0.8719: real time    0.8717

 eigenvalue-minimisations  :   336
 total energy-change (2. order) : 0.7394740E-03  (-0.1726459E-03)
 number of electron      18.0000002 magnetization 
 augmentation part       -0.5506587 magnetization 

 Broyden mixing:
  rms(total) = 0.44117E-02    rms(broyden)= 0.44117E-02
  rms(prec ) = 0.60567E-02
  weight for this iteration     100.00

 eigenvalues of (default mixing * dielectric matrix)
  average eigenvalue GAMMA=   1.6667
  0.6679  1.0370  2.1640  2.2323  2.2323

 Free energy of the ion-electron system (eV)
  ---------------------------------------------------
  alpha Z        PSCENC =        12.51390764
  Ewald energy   TEWEN  =      4286.25630342
  -Hartree energ DENC   =     -4977.76277829
  -exchange      EXHF   =         0.00000000
  -V(xc)+E(xc)   XCENC  =       -35.21951329
  PAW double counting   =       472.37303947     -396.57540867
  entropy T*S    EENTRO =         0.00000000
  eigenvalues    EBANDS =      -154.54657666
  atomic energy  EATOM  =       771.16207120
  Solvation  Ediel_sol  =         0.00000000
  ---------------------------------------------------
  free energy    TOTEN  =       -21.79895518 eV

  energy without entropy =      -21.79895518  energy(sigma->0) =      -21.79895518


--------------------------------------------------------------------------------------------------------




--------------------------------------- Iteration      1(  11)  ---------------------------------------


    POTLOK:  cpu time    0.1100: real time    0.1130
    SETDIJ:  cpu time    0.0040: real time    0.0038
    EDDIAG:  cpu time    0.1070: real time    0.1073
  RMM-DIIS:  cpu time    0.5509: real time    0.5503
    ORTHCH:  cpu time    0.0080: real time    0.0083
 BZINTS: Fermi energy: -3.520112; 18.000000 electrons
         Band energy:-153.427850;  BLOECHL correction:  0.000000
       DOS:  cpu time    0.0010: real time    0.0002
    CHARGE:  cpu time    0.0520: real time    0.0530
    MIXING:  cpu time    0.0050: real time    0.0043
    --------------------------------------------
      LOOP:  cpu time    0.8379: real time    0.8402

 eigenvalue-minimisations  :   312
 total energy-change (2. order) : 0.8818169E-04  (-0.1657997E-03)
 number of electron      18.0000002 magnetization 
 augmentation part       -0.5468512 magnetization 

 Broyden mixing:
  rms(total) = 0.55311E-02    rms(broyden)= 0.55311E-02
  rms(prec ) = 0.63759E-02
  weight for this iteration     100.00

 eigenvalues of (default mixing * dielectric matrix)
  average eigenvalue GAMMA=   1.6715
  2.9229  2.6707  0.6685  0.9313  1.4177  1.4177

 Free energy of the ion-electron system (eV)
  ---------------------------------------------------
  alpha Z        PSCENC =        12.51390764
  Ewald energy   TEWEN  =      4286.25630342
  -Hartree energ DENC   =     -4978.90461975
  -exchange      EXHF   =         0.00000000
  -V(xc)+E(xc)   XCENC  =       -35.20582806
  PAW double counting   =       471.81854558     -396.01139668
  entropy T*S    EENTRO =         0.00000000
  eigenvalues    EBANDS =      -153.42785035
  atomic energy  EATOM  =       771.16207120
  Solvation  Ediel_sol  =         0.00000000
  ---------------------------------------------------
  free energy    TOTEN  =       -21.79886700 eV

  energy without entropy =      -21.79886700  energy(sigma->0) =      -21.79886700


--------------------------------------------------------------------------------------------------------




--------------------------------------- Iteration      1(  12)  ---------------------------------------


    POTLOK:  cpu time    0.1110: real time    0.1124
    SETDIJ:  cpu time    0.0050: real time    0.0037
    EDDIAG:  cpu time    0.1070: real time    0.1074
  RMM-DIIS:  cpu time    0.5359: real time    0.5359
    ORTHCH:  cpu time    0.0080: real time    0.0082
 BZINTS: Fermi energy: -3.484675; 18.000000 electrons
         Band energy:-152.766638;  BLOECHL correction:  0.000000
       DOS:  cpu time    0.0000: real time    0.0002
    CHARGE:  cpu time    0.0530: real time    0.0528
    MIXING:  cpu time    0.0040: real time    0.0045
    --------------------------------------------
      LOOP:  cpu time    0.8239: real time    0.8252

 eigenvalue-minimisations  :   304
 total energy-change (2. order) : 0.1957538E-03  (-0.5446327E-04)
 number of electron      18.0000002 magnetization 
 augmentation part       -0.5496898 magnetization 

 Broyden mixing:
  rms(total) = 0.17594E-02    rms(broyden)= 0.17594E-02
  rms(prec ) = 0.23502E-02
  weight for this iteration     100.00

 eigenvalues of (default mixing * dielectric matrix)
  average eigenvalue GAMMA=   1.9404
  3.8359  2.7129  2.7129  0.6685  0.9624  1.4528  1.2375

 Free energy of the ion-electron system (eV)
  ---------------------------------------------------
  alpha Z        PSCENC =        12.51390764
  Ewald energy   TEWEN  =      4286.25630342
  -Hartree energ DENC   =     -4979.57123138
  -exchange      EXHF   =         0.00000000
  -V(xc)+E(xc)   XCENC  =       -35.20259301
  PAW double counting   =       471.99235627     -396.18284763
  entropy T*S    EENTRO =         0.00000000
  eigenvalues    EBANDS =      -152.76663776
  atomic energy  EATOM  =       771.16207120
  Solvation  Ediel_sol  =         0.00000000
  ---------------------------------------------------
  free energy    TOTEN  =       -21.79867125 eV

  energy without entropy =      -21.79867125  energy(sigma->0) =      -21.79867125


--------------------------------------------------------------------------------------------------------




--------------------------------------- Iteration      1(  13)  ---------------------------------------


    POTLOK:  cpu time    0.1150: real time    0.1184
    SETDIJ:  cpu time    0.0050: real time    0.0038
    EDDIAG:  cpu time    0.1080: real time    0.1086
  RMM-DIIS:  cpu time    0.4879: real time    0.4871
    ORTHCH:  cpu time    0.0080: real time    0.0083
 BZINTS: Fermi energy: -3.445930; 18.000000 electrons
         Band energy:-152.050628;  BLOECHL correction:  0.000000
       DOS:  cpu time    0.0000: real time    0.0002
    CHARGE:  cpu time    0.0520: real time    0.0528
    MIXING:  cpu time    0.0050: real time    0.0047
    --------------------------------------------
      LOOP:  cpu time    0.7809: real time    0.7839

 eigenvalue-minimisations  :   285
 total energy-change (2. order) :-0.2617655E-03  (-0.1555122E-04)
 number of electron      18.0000002 magnetization 
 augmentation part       -0.5480519 magnetization 

 Broyden mixing:
  rms(total) = 0.20141E-02    rms(broyden)= 0.20141E-02
  rms(prec ) = 0.22673E-02
  weight for this iteration     100.00

 eigenvalues of (default mixing * dielectric matrix)
  average eigenvalue GAMMA=   1.9034
  4.7547  2.7030  2.3784  1.4187  1.4187  0.6687  0.9424  0.9424

 Free energy of the ion-electron system (eV)
  ---------------------------------------------------
  alpha Z        PSCENC =        12.51390764
  Ewald energy   TEWEN  =      4286.25630342
  -Hartree energ DENC   =     -4980.28934750
  -exchange      EXHF   =         0.00000000
  -V(xc)+E(xc)   XCENC  =       -35.19572517
  PAW double counting   =       471.93820535     -396.13372023
  entropy T*S    EENTRO =         0.00000000
  eigenvalues    EBANDS =      -152.05062773
  atomic energy  EATOM  =       771.16207120
  Solvation  Ediel_sol  =         0.00000000
  ---------------------------------------------------
  free energy    TOTEN  =       -21.79893301 eV

  energy without entropy =      -21.79893301  energy(sigma->0) =      -21.79893301


--------------------------------------------------------------------------------------------------------




--------------------------------------- Iteration      1(  14)  ---------------------------------------


    POTLOK:  cpu time    0.1190: real time    0.1192
    SETDIJ:  cpu time    0.0040: real time    0.0038
    EDDIAG:  cpu time    0.1070: real time    0.1071
  RMM-DIIS:  cpu time    0.4519: real time    0.4511
    ORTHCH:  cpu time    0.0080: real time    0.0082
 BZINTS: Fermi energy: -3.437232; 18.000000 electrons
         Band energy:-151.895655;  BLOECHL correction:  0.000000
       DOS:  cpu time    0.0000: real time    0.0002
    CHARGE:  cpu time    0.0520: real time    0.0529
    MIXING:  cpu time    0.0050: real time    0.0048
    --------------------------------------------
      LOOP:  cpu time    0.7469: real time    0.7474

 eigenvalue-minimisations  :   254
 total energy-change (2. order) :-0.3254822E-04  (-0.2589831E-05)
 number of electron      18.0000002 magnetization 
 augmentation part       -0.5492241 magnetization 

 Broyden mixing:
  rms(total) = 0.49673E-03    rms(broyden)= 0.49673E-03
  rms(prec ) = 0.68569E-03
  weight for this iteration     100.00

 eigenvalues of (default mixing * dielectric matrix)
  average eigenvalue GAMMA=   2.1575
  6.4299  2.9552  2.3860  2.3860  1.5053  0.6687  1.1865  0.9500  0.9500

 Free energy of the ion-electron system (eV)
  ---------------------------------------------------
  alpha Z        PSCENC =        12.51390764
  Ewald energy   TEWEN  =      4286.25630342
  -Hartree energ DENC   =     -4980.44673542
  -exchange      EXHF   =         0.00000000
  -V(xc)+E(xc)   XCENC  =       -35.19790749
  PAW double counting   =       471.75733740     -395.94828729
  entropy T*S    EENTRO =         0.00000000
  eigenvalues    EBANDS =      -151.89565503
  atomic energy  EATOM  =       771.16207120
  Solvation  Ediel_sol  =         0.00000000
  ---------------------------------------------------
  free energy    TOTEN  =       -21.79896556 eV

  energy without entropy =      -21.79896556  energy(sigma->0) =      -21.79896556


--------------------------------------------------------------------------------------------------------




--------------------------------------- Iteration      1(  15)  ---------------------------------------


    POTLOK:  cpu time    0.1200: real time    0.1212
    SETDIJ:  cpu time    0.0040: real time    0.0038
    EDDIAG:  cpu time    0.1060: real time    0.1065
  RMM-DIIS:  cpu time    0.3679: real time    0.3678
    ORTHCH:  cpu time    0.0080: real time    0.0082
 BZINTS: Fermi energy: -3.428160; 18.000000 electrons
         Band energy:-151.741978;  BLOECHL correction:  0.000000
       DOS:  cpu time    0.0000: real time    0.0002
    CHARGE:  cpu time    0.0520: real time    0.0523
    MIXING:  cpu time    0.0050: real time    0.0049
    --------------------------------------------
      LOOP:  cpu time    0.6629: real time    0.6650

 eigenvalue-minimisations  :   193
 total energy-change (2. order) :-0.1105827E-03  (-0.1110717E-05)
 number of electron      18.0000002 magnetization 
 augmentation part       -0.5489991 magnetization 

 Broyden mixing:
  rms(total) = 0.27916E-03    rms(broyden)= 0.27916E-03
  rms(prec ) = 0.37362E-03
  weight for this iteration     100.00

 eigenvalues of (default mixing * dielectric matrix)
  average eigenvalue GAMMA=   2.1410
  6.5057  3.5544  2.6174  1.7659  1.7659  1.5325  0.6687  1.0607  1.0072  0.9321

 Free energy of the ion-electron system (eV)
  ---------------------------------------------------
  alpha Z        PSCENC =        12.51390764
  Ewald energy   TEWEN  =      4286.25630342
  -Hartree energ DENC   =     -4980.60056790
  -exchange      EXHF   =         0.00000000
  -V(xc)+E(xc)   XCENC  =       -35.19774546
  PAW double counting   =       471.78350730     -395.97457414
  entropy T*S    EENTRO =         0.00000000
  eigenvalues    EBANDS =      -151.74197820
  atomic energy  EATOM  =       771.16207120
  Solvation  Ediel_sol  =         0.00000000
  ---------------------------------------------------
  free energy    TOTEN  =       -21.79907614 eV

  energy without entropy =      -21.79907614  energy(sigma->0) =      -21.79907614


--------------------------------------------------------------------------------------------------------




--------------------------------------- Iteration      1(  16)  ---------------------------------------


    POTLOK:  cpu time    0.1180: real time    0.1182
    SETDIJ:  cpu time    0.0050: real time    0.0038
    EDDIAG:  cpu time    0.1080: real time    0.1080
  RMM-DIIS:  cpu time    0.3609: real time    0.3608
    ORTHCH:  cpu time    0.0080: real time    0.0083
 BZINTS: Fermi energy: -3.424146; 18.000000 electrons
         Band energy:-151.678934;  BLOECHL correction:  0.000000
       DOS:  cpu time    0.0000: real time    0.0002
    CHARGE:  cpu time    0.0520: real time    0.0529
    MIXING:  cpu time    0.0060: real time    0.0053
    --------------------------------------------
      LOOP:  cpu time    0.6579: real time    0.6575

 eigenvalue-minimisations  :   181
 total energy-change (2. order) :-0.3234351E-04  (-0.4729999E-06)
 number of electron      18.0000002 magnetization 
 augmentation part       -0.5491239 magnetization 

 Broyden mixing:
  rms(total) = 0.16958E-03    rms(broyden)= 0.16958E-03
  rms(prec ) = 0.21599E-03
  weight for this iteration     100.00

 eigenvalues of (default mixing * dielectric matrix)
  average eigenvalue GAMMA=   2.2982
  7.3079  3.9022  2.9961  2.6179  2.1454  1.5534  0.6687  1.1178  1.0726  0.9750
  0.9232

 Free energy of the ion-electron system (eV)
  ---------------------------------------------------
  alpha Z        PSCENC =        12.51390764
  Ewald energy   TEWEN  =      4286.25630342
  -Hartree energ DENC   =     -4980.66274218
  -exchange      EXHF   =         0.00000000
  -V(xc)+E(xc)   XCENC  =       -35.19760204
  PAW double counting   =       471.83967629     -396.03178896
  entropy T*S    EENTRO =         0.00000000
  eigenvalues    EBANDS =      -151.67893386
  atomic energy  EATOM  =       771.16207120
  Solvation  Ediel_sol  =         0.00000000
  ---------------------------------------------------
  free energy    TOTEN  =       -21.79910849 eV

  energy without entropy =      -21.79910849  energy(sigma->0) =      -21.79910849


--------------------------------------------------------------------------------------------------------




--------------------------------------- Iteration      1(  17)  ---------------------------------------


    POTLOK:  cpu time    0.1200: real time    0.1236
    SETDIJ:  cpu time    0.0040: real time    0.0039
    EDDIAG:  cpu time    0.1090: real time    0.1085
  RMM-DIIS:  cpu time    0.3310: real time    0.3314
    ORTHCH:  cpu time    0.0080: real time    0.0083
 BZINTS: Fermi energy: -3.422383; 18.000000 electrons
         Band energy:-151.640897;  BLOECHL correction:  0.000000
       DOS:  cpu time    0.0010: real time    0.0002
    CHARGE:  cpu time    0.0530: real time    0.0532
    MIXING:  cpu time    0.0060: real time    0.0054
    --------------------------------------------
      LOOP:  cpu time    0.6319: real time    0.6345

 eigenvalue-minimisations  :   163
 total energy-change (2. order) :-0.4375740E-04  (-0.3336180E-06)
 number of electron      18.0000002 magnetization 
 augmentation part       -0.5491473 magnetization 

 Broyden mixing:
  rms(total) = 0.13981E-03    rms(broyden)= 0.13981E-03
  rms(prec ) = 0.16164E-03
  weight for this iteration     100.00

 eigenvalues of (default mixing * dielectric matrix)
  average eigenvalue GAMMA=   2.3220
  7.7387  4.9693  2.9281  2.4915  2.1093  1.4973  1.4973  0.6687  1.0487  1.0487
  0.9335  0.9335

 Free energy of the ion-electron system (eV)
  ---------------------------------------------------
  alpha Z        PSCENC =        12.51390764
  Ewald energy   TEWEN  =      4286.25630342
  -Hartree energ DENC   =     -4980.70165096
  -exchange      EXHF   =         0.00000000
  -V(xc)+E(xc)   XCENC  =       -35.19775456
  PAW double counting   =       471.79502781     -395.98616000
  entropy T*S    EENTRO =         0.00000000
  eigenvalues    EBANDS =      -151.64089680
  atomic energy  EATOM  =       771.16207120
  Solvation  Ediel_sol  =         0.00000000
  ---------------------------------------------------
  free energy    TOTEN  =       -21.79915225 eV

  energy without entropy =      -21.79915225  energy(sigma->0) =      -21.79915225


--------------------------------------------------------------------------------------------------------




--------------------------------------- Iteration      1(  18)  ---------------------------------------


    POTLOK:  cpu time    0.1160: real time    0.1163
    SETDIJ:  cpu time    0.0040: real time    0.0038
    EDDIAG:  cpu time    0.1060: real time    0.1068
  RMM-DIIS:  cpu time    0.2900: real time    0.2893
    ORTHCH:  cpu time    0.0080: real time    0.0083
 BZINTS: Fermi energy: -3.422550; 18.000000 electrons
         Band energy:-151.642311;  BLOECHL correction:  0.000000
       DOS:  cpu time    0.0000: real time    0.0002
    --------------------------------------------
      LOOP:  cpu time    0.5239: real time    0.5248

 eigenvalue-minimisations  :    85
 total energy-change (2. order) :-0.7869517E-05  (-0.4534434E-07)
 number of electron      18.0000002 magnetization 
 augmentation part       -0.5491473 magnetization 

 Free energy of the ion-electron system (eV)
  ---------------------------------------------------
  alpha Z        PSCENC =        12.51390764
  Ewald energy   TEWEN  =      4286.25630342
  -Hartree energ DENC   =     -4980.70005925
  -exchange      EXHF   =         0.00000000
  -V(xc)+E(xc)   XCENC  =       -35.19773758
  PAW double counting   =       471.80391157     -395.99524600
  entropy T*S    EENTRO =         0.00000000
  eigenvalues    EBANDS =      -151.64231111
  atomic energy  EATOM  =       771.16207120
  Solvation  Ediel_sol  =         0.00000000
  ---------------------------------------------------
  free energy    TOTEN  =       -21.79916012 eV

  energy without entropy =      -21.79916012  energy(sigma->0) =      -21.79916012


--------------------------------------------------------------------------------------------------------




 average (electrostatic) potential at core
  the test charge radii are     1.2296  0.9698
  (the norm of the test charge is              1.0000)
       1 -46.8732       2 -94.7152       3 -94.7152
 
 
 
 E-fermi :  -3.4225     XC(G=0):  -2.8701     alpha+bet : -2.6672


 k-point     1 :       0.0000    0.0000    0.0000
  band No.  band energies     occupation 
      1     -17.4635      2.00000
      2     -16.2554      2.00000
      3      -8.9844      2.00000
      4      -6.0236      2.00000
      5      -6.0236      2.00000
      6      -5.1623      2.00000
      7      -4.9180      2.00000
      8      -4.9180      2.00000
      9      -3.4419      2.00000
     10      -0.6704      0.00000
     11      -0.6703      0.00000
     12      -0.4466      0.00000
     13      -0.4466      0.00000
     14       1.9921      0.00000

 k-point     2 :       0.1250    0.0000    0.0000
  band No.  band energies     occupation 
      1     -17.2493      2.00000
      2     -16.1530      2.00000
      3      -8.7398      2.00000
      4      -6.4870      2.00000
      5      -5.9703      2.00000
      6      -5.7892      2.00000
      7      -5.2538      2.00000
      8      -4.4848      2.00000
      9      -3.5803      2.00000
     10      -0.9504      0.00000
     11      -0.8846      0.00000
     12      -0.6832      0.00000
     13      -0.3156      0.00000
     14       2.3609      0.00000

 k-point     3 :       0.2500    0.0000    0.0000
  band No.  band energies     occupation 
      1     -16.6806      2.00000
      2     -15.8843      2.00000
      3      -8.3738      2.00000
      4      -7.2136      2.00000
      5      -6.9512      2.00000
      6      -5.8888      2.00000
      7      -5.2021      2.00000
      8      -4.7364      2.00000
      9      -4.1483      2.00000
     10      -1.2745      0.00000
     11      -1.0979      0.00000
     12      -0.5558      0.00000
     13       0.3014      0.00000
     14       3.1778      0.00000

 k-point     4 :       0.3750    0.0000    0.0000
  band No.  band energies     occupation 
      1     -16.0055      2.00000
      2     -15.5758      2.00000
      3      -8.8110      2.00000
      4      -7.8186      2.00000
      5      -7.3464      2.00000
      6      -6.3861      2.00000
      7      -5.1457      2.00000
      8      -4.6116      2.00000
      9      -4.3435      2.00000
     10      -1.2794      0.00000
     11      -1.0005      0.00000
     12       0.1627      0.00000
     13       0.6947      0.00000
     14       3.7017      0.00000

 k-point     5 :       0.5000    0.0000    0.0000
  band No.  band energies     occupation 
      1     -15.6772      2.00000
      2     -15.4325      2.00000
      3      -9.1437      2.00000
      4      -8.1835      2.00000
      5      -7.4727      2.00000
      6      -6.5667      2.00000
      7      -5.2845      2.00000
      8      -4.3845      2.00000
      9      -4.0627      2.00000
     10      -1.2571      0.00000
     11      -0.7411      0.00000
     12       0.4613      0.00000
     13       0.8102      0.00000
     14       2.7406      0.00000

 k-point     6 :       0.1250    0.1250    0.0000
  band No.  band energies     occupation 
      1     -16.8565      2.00000
      2     -15.9660      2.00000
      3      -8.3926      2.00000
      4      -7.0510      2.00000
      5      -6.5325      2.00000
      6      -6.0676      2.00000
      7      -5.4497      2.00000
      8      -4.3503      2.00000
      9      -3.9522      2.00000
     10      -1.3496      0.00000
     11      -0.9714      0.00000
     12      -0.9597      0.00000
     13       0.2793      0.00000
     14       2.9556      0.00000

 k-point     7 :       0.2500    0.1250    0.0000
  band No.  band energies     occupation 
      1     -16.2229      2.00000
      2     -15.6675      2.00000
      3      -8.4553      2.00000
      4      -7.4777      2.00000
      5      -7.2146      2.00000
      6      -6.5719      2.00000
      7      -5.3503      2.00000
      8      -4.7125      2.00000
      9      -4.2358      2.00000
     10      -1.4330      0.00000
     11      -0.9845      0.00000
     12      -0.4897      0.00000
     13       0.7871      0.00000
     14       3.9287      0.00000

 k-point     8 :       0.3750    0.1250    0.0000
  band No.  band energies     occupation 
      1     -15.6925      2.00000
      2     -15.4236      2.00000
      3      -8.8563      2.00000
      4      -8.2408      2.00000
      5      -7.3450      2.00000
      6      -6.5887      2.00000
      7      -5.3351      2.00000
      8      -5.1943      2.00000
      9      -3.9090      2.00000
     10      -1.2382      0.00000
     11      -0.7279      0.00000
     12       0.1320      0.00000
     13       0.8208      0.00000
     14       3.2674      0.00000

 k-point     9 :       0.2500    0.2500    0.0000
  band No.  band energies     occupation 
      1     -15.7074      2.00000
      2     -15.4146      2.00000
      3      -8.4959      2.00000
      4      -8.2916      2.00000
      5      -7.0178      2.00000
      6      -6.6370      2.00000
      7      -6.3179      2.00000
      8      -5.0609      2.00000
      9      -3.9378      2.00000
     10      -1.2892      0.00000
     11      -0.6782      0.00000
     12      -0.3665      0.00000
     13       1.1089      0.00000
     14       4.0998      0.00000

 k-point    10 :       0.3750    0.2500    0.0000
  band No.  band energies     occupation 
      1     -15.4725      2.00000
      2     -15.2954      2.00000
      3      -8.6760      2.00000
      4      -8.3269      2.00000
      5      -7.3022      2.00000
      6      -6.6396      2.00000
      7      -6.4094      2.00000
      8      -5.4472      2.00000
      9      -3.5704      2.00000
     10      -1.6149      0.00000
     11      -0.3082      0.00000
     12      -0.1276      0.00000
     13       1.2542      0.00000
     14       3.5103      0.00000


--------------------------------------------------------------------------------------------------------


 soft charge-density along one line, spin component           1
         0         1         2         3         4         5         6         7         8         9
 total charge-density along one line
 
 pseudopotential strength for first ion, spin component:           1
 -9.986  -0.000  -0.000  -0.000  -0.000   0.102   0.000   0.000
 -0.000  -9.987  -0.000  -0.000  -0.000   0.000   0.102   0.000
 -0.000  -0.000  -9.966  -0.000  -0.000   0.000   0.000   0.101
 -0.000  -0.000  -0.000  -9.987  -0.000   0.000   0.000   0.000
 -0.000  -0.000  -0.000  -0.000  -9.986   0.000   0.000   0.000
  0.102   0.000   0.000   0.000   0.000   0.098  -0.000   0.000
  0.000   0.102   0.000   0.000   0.000  -0.000   0.098  -0.000
  0.000   0.000   0.101   0.000   0.000   0.000  -0.000   0.098
  0.000   0.000   0.000   0.102   0.000  -0.000  -0.000  -0.000
  0.000   0.000   0.000   0.000   0.102  -0.000  -0.000  -0.000
  0.000  -0.000  -0.005   0.000  -0.000  -0.000   0.000   0.000
 -0.000   0.000   0.001  -0.000   0.000   0.000  -0.000  -0.000
 -0.000  -0.000  -0.000  -0.000  -0.007   0.000  -0.000   0.000
 -0.000   0.000   0.000  -0.000  -0.000  -0.000  -0.000   0.000
 -0.007  -0.000   0.000  -0.000  -0.000  -0.000  -0.000  -0.000
  0.000   0.000   0.000   0.000   0.004  -0.000   0.000  -0.000
  0.000  -0.000  -0.000   0.000   0.000  -0.000   0.000   0.000
  0.004   0.000  -0.000   0.000   0.000   0.000  -0.000   0.000
 total augmentation occupancy for first ion, spin component:           1
  0.965   0.000  -0.000   0.000  -0.000   0.595   0.000  -0.000   0.000  -0.000  -0.000   0.000   0.000   0.000  -0.065  -0.000
  0.000   0.907  -0.000   0.000   0.000   0.000   0.833   0.000   0.000   0.000   0.000   0.000   0.000   0.000   0.000  -0.000
 -0.000   0.000   1.029   0.000   0.000  -0.000   0.000   0.495   0.000   0.000   0.111  -0.019  -0.000   0.000   0.000   0.000
 -0.000   0.000   0.000   0.907  -0.000   0.000   0.000  -0.000   0.833   0.000   0.000  -0.000  -0.000  -0.000   0.000  -0.000
 -0.000   0.000   0.000   0.000   0.965  -0.000  -0.000   0.000   0.000   0.595   0.000  -0.000  -0.065   0.000  -0.000   0.007
  0.595   0.000  -0.000   0.000  -0.000   0.670   0.000  -0.000   0.000  -0.000   0.000   0.000   0.000   0.000  -0.136  -0.000
  0.000   0.833   0.000   0.000  -0.000   0.000   1.069   0.000   0.000   0.000   0.000   0.000   0.000   0.000  -0.000   0.000
 -0.000   0.000   0.495   0.000   0.000  -0.000   0.000   0.470   0.000   0.000   0.058  -0.021  -0.000   0.000   0.000   0.000
 -0.000   0.000  -0.000   0.833   0.000   0.000   0.000  -0.000   1.069   0.000   0.000   0.000  -0.000  -0.000   0.000   0.000
 -0.000  -0.000   0.000   0.000   0.595  -0.000   0.000   0.000   0.000   0.670   0.000  -0.000  -0.136   0.000  -0.000   0.023
 -0.000   0.000   0.111   0.000   0.000   0.000   0.000   0.058   0.000   0.000   1.207  -0.186   0.000   0.000   0.000   0.000
  0.000   0.000  -0.019  -0.000  -0.000   0.000   0.000  -0.021   0.000  -0.000  -0.186   0.042   0.000   0.000   0.000   0.000
  0.000   0.000  -0.000  -0.000  -0.065   0.000   0.000  -0.000  -0.000  -0.136   0.000   0.000   0.217   0.000   0.000  -0.032
  0.000   0.000   0.000  -0.000   0.000   0.000   0.000   0.000  -0.000   0.000   0.000   0.000   0.000   0.264  -0.000   0.000
 -0.065   0.000   0.000  -0.000  -0.000  -0.136  -0.000   0.000   0.000  -0.000  -0.000  -0.000   0.000   0.000   0.217  -0.000
 -0.000  -0.000   0.000   0.000   0.007  -0.000   0.000   0.000   0.000   0.023   0.000   0.000  -0.032   0.000  -0.000   0.005
  0.000  -0.000   0.000   0.000   0.000   0.000   0.000   0.000  -0.000   0.000   0.000   0.000   0.000  -0.038   0.000   0.000
  0.007   0.000  -0.000  -0.000   0.000   0.023   0.000  -0.000  -0.000   0.000   0.000   0.000  -0.000  -0.000  -0.032   0.000


------------------------ aborting loop because EDIFF is reached ----------------------------------------


    CHARGE:  cpu time    0.0530: real time    0.0537
    FORLOC:  cpu time    0.0100: real time    0.0095
    FORNL :  cpu time    0.0760: real time    0.0753
    STRESS:  cpu time    0.3999: real time    0.4006
    FORCOR:  cpu time    0.1320: real time    0.1315
    FORHAR:  cpu time    0.0320: real time    0.0314
    MIXING:  cpu time    0.0050: real time    0.0057
    OFIELD:  cpu time    0.0000: real time    0.0000

  DFT-D2 method for vdW energy calculation
  -------------------------------------------------------------------

  Parameters of vdW forcefield:
         C6(Jnm^6/mol)     R0(A)
   -----------------------------
   Mo      24.670          1.639
   S        5.570          1.683

  IVDW =   1
  VDW_RADIUS =    50.000 A
  VDW_S6 =     0.750
  VDW_SR =     1.000
  VDW_D =    20.000
  LVDW_EWALD = F

  Number of pair interactions contributing to vdW energy:   12957
  Edisp (eV):   -0.59091
    FORVDW:  cpu time    0.0110: real time    0.0154

  FORCE on cell =-STRESS in cart. coord.  units (eV):
  Direction    XX          YY          ZZ          XY          YZ          ZX
  --------------------------------------------------------------------------------------
  Alpha Z    12.51391    12.51391    12.51391
  Ewald    4853.12264  4853.12308 -5419.98957     0.00019     0.00000     0.00012
  Hartree  4942.42610  4942.42610 -4904.14923     0.00002     0.00000    -0.00000
  E(xc)     -70.30243   -70.30244   -70.90745    -0.00000    -0.00000    -0.00000
  Local  -10076.21827-10076.21854 10037.50468    -0.00016    -0.00000    -0.00006
  n-local   127.16802   125.79139   131.68700    -0.25747    -0.00000    -0.00001
  augment   -25.56206   -25.56204   -26.66458     0.00001    -0.00000    -0.00000
  Kinetic   235.85735   238.65831   239.77575    -7.40902     0.00002     0.00002
  Fock        0.00000     0.00000     0.00000     0.00000     0.00000     0.00000
  vdW         0.16041     0.16041    -0.13425     0.00000     0.00000    -0.00000
  -------------------------------------------------------------------------------------
  Total      -0.12208    -0.12208    -0.36374     0.00000     0.00000     0.00000
  in kB      -0.82556    -0.82556    -2.45973     0.00000     0.00000     0.00000
  external pressure =       -1.37 kB  Pullay stress =        0.00 kB


 VOLUME and BASIS-vectors are now :
 -----------------------------------------------------------------------------
  energy-cutoff  :      700.00
  volume of cell :      236.93
      direct lattice vectors                 reciprocal lattice vectors
     3.190315730  0.000000000  0.000000000     0.313448600  0.180969634  0.000000000
    -1.595157865  2.762894468  0.000000000     0.000000000  0.361939267  0.000000000
     0.000000000  0.000000000 26.879004300     0.000000000  0.000000000  0.037203759

  length of vectors
     3.190315730  3.190315730 26.879004300     0.361939267  0.361939267  0.037203759


 FORCES acting on ions
    electron-ion (+dipol)            ewald-force                    non-local-force                 convergence-correction
 -----------------------------------------------------------------------------------------------
   -.115E-04 -.604E-06 0.114E-04   0.931E-04 -.108E-03 0.307E-06   -.382E-16 0.000E+00 0.254E-20   0.113E-08 -.187E-08 -.933E-07
   -.854E-03 0.495E-03 0.579E+03   -.864E-04 0.538E-04 -.584E+03   0.173E-17 -.347E-16 0.480E+01   -.139E-07 0.727E-08 0.250E-02
   0.865E-03 0.495E-03 -.579E+03   -.674E-05 0.538E-04 0.584E+03   0.000E+00 -.226E-16 -.480E+01   0.122E-07 0.727E-08 -.250E-02
 -----------------------------------------------------------------------------------------------
   -.823E-06 0.989E-03 0.692E-04   0.897E-14 0.972E-14 -.114E-12   -.364E-16 -.572E-16 0.000E+00   -.607E-09 0.127E-07 -.257E-06
 
 
 POSITION                                       TOTAL-FORCE (eV/Angst)
 -----------------------------------------------------------------------------------
     -0.00000      1.84193      3.71975        -0.000000     -0.000000      0.000000
      1.59516      0.92096      2.15487         0.000000      0.000000      0.114822
      1.59516      0.92096      5.28464         0.000000     -0.000000     -0.114822
 -----------------------------------------------------------------------------------
    total drift:                               -0.000001      0.000989      0.000069


--------------------------------------------------------------------------------------------------------



  FREE ENERGIE OF THE ION-ELECTRON SYSTEM (eV)
  ---------------------------------------------------
  free  energy   TOTEN  =       -22.39006918 eV

  energy  without entropy=      -22.39006918  energy(sigma->0) =      -22.39006918
 


--------------------------------------------------------------------------------------------------------


    POTLOK:  cpu time    0.1230: real time    0.1220


--------------------------------------------------------------------------------------------------------


     LOOP+:  cpu time   15.4207: real time   15.6509
    4ORBIT:  cpu time    0.0000: real time    0.0000
 BZINTS: Fermi energy: -3.422550; 18.000000 electrons
         Band energy:-151.642311;  BLOECHL correction:  0.000000

 total amount of memory used by VASP MPI-rank0    72641. kBytes
=======================================================================

   base      :      30000. kBytes
   nonl-proj :      14675. kBytes
   fftplans  :       8557. kBytes
   grid      :      13736. kBytes
   one-center:         31. kBytes
   wavefun   :       5642. kBytes
 
  
  
 General timing and accounting informations for this job:
 ========================================================
  
                  Total CPU time used (sec):       17.229
                            User time (sec):       16.646
                          System time (sec):        0.583
                         Elapsed time (sec):       18.311
  
                   Maximum memory used (kb):       74392.
                   Average memory used (kb):           0.
  
                          Minor page faults:        19004
                          Major page faults:          201
                 Voluntary context switches:         2859
