perl: warning: Setting locale failed.
perl: warning: Please check that your locale settings:
	LANGUAGE = (unset),
	LC_ALL = (unset),
	LC_CTYPE = "UTF-8",
	LANG = "en_US.iso885915"
    are supported and installed on your system.
perl: warning: Falling back to the standard locale ("C").
Starting job 28532695 ("jobname") on c15-12 at Fri Nov 8 11:59:20 CET 2019
 running on    4 total cores
 distrk:  each k-point on    4 cores,    1 groups
 distr:  one band on    2 cores,    2 groups
 using from now: INCAR     
 vasp.5.4.4.18Apr17-6-g9f103f2a35 (build Jun 30 2017 11:15:00) complex          
  
 POSCAR found type information on POSCAR  Mo S 
 POSCAR found :  2 types and       3 ions
 scaLAPACK will be used
 LDA part: xc-table for Pade appr. of Perdew
 POSCAR, INCAR and KPOINTS ok, starting setup
 FFT: planning ...
 WAVECAR not read
 entering main loop
       N       E                     dE             d eps       ncg     rms          rms(c)
DAV:   1     0.153481438092E+03    0.15348E+03   -0.68951E+03   280   0.117E+03
DAV:   2    -0.438578518087E+01   -0.15787E+03   -0.15047E+03   510   0.183E+02
DAV:   3    -0.229970502917E+02   -0.18611E+02   -0.18407E+02   382   0.796E+01
DAV:   4    -0.233988469463E+02   -0.40180E+00   -0.40021E+00   366   0.146E+01
DAV:   5    -0.234098541633E+02   -0.11007E-01   -0.11005E-01   372   0.234E+00    0.689E+00
RMM:   6    -0.222495400370E+02    0.11603E+01   -0.54319E+00   295   0.125E+01    0.261E+00
RMM:   7    -0.218644168641E+02    0.38512E+00   -0.55202E-01   292   0.341E+00    0.150E+00
RMM:   8    -0.218045393342E+02    0.59878E-01   -0.23343E-01   309   0.252E+00    0.356E-01
RMM:   9    -0.217996946578E+02    0.48447E-02   -0.88021E-03   335   0.612E-01    0.961E-02
RMM:  10    -0.217989551838E+02    0.73947E-03   -0.17265E-03   336   0.222E-01    0.441E-02
RMM:  11    -0.217988670021E+02    0.88182E-04   -0.16580E-03   312   0.193E-01    0.553E-02
RMM:  12    -0.217986712482E+02    0.19575E-03   -0.54463E-04   304   0.132E-01    0.176E-02
RMM:  13    -0.217989330137E+02   -0.26177E-03   -0.15551E-04   285   0.718E-02    0.201E-02
RMM:  14    -0.217989655619E+02   -0.32548E-04   -0.25898E-05   254   0.284E-02    0.497E-03
RMM:  15    -0.217990761446E+02   -0.11058E-03   -0.11107E-05   193   0.174E-02    0.279E-03
RMM:  16    -0.217991084881E+02   -0.32344E-04   -0.47300E-06   181   0.946E-03    0.170E-03
RMM:  17    -0.217991522455E+02   -0.43757E-04   -0.33362E-06   163   0.796E-03    0.140E-03
RMM:  18    -0.217991601150E+02   -0.78695E-05   -0.45344E-07    85   0.404E-03
   1 F= -.22390069E+02 E0= -.22390069E+02  d E =0.000000E+00

Currently Loaded Modulefiles:
  1) Anaconda3/5.1.0       3) vesta/3.3.8           5) intel/2016.1
  2) gnuplot/5.0.4         4) imagemagick/6.7.9-0   6) vasp/5.4.1.Feb16

Job script resource usage:
       JobID  MaxVMSize     MaxRSS 
------------ ---------- ---------- 
28532695.ba+    216888K      2397K 

Job step resource usage:
       JobID    JobName  AllocCPUS  MaxVMSize     MaxRSS    Elapsed ExitCode 
------------ ---------- ---------- ---------- ---------- ---------- -------- 
28532695        jobname          4                         00:00:20      0:0 
28532695.0    pmi_proxy          1    279832K       524K   00:00:19      0:0 

Job 28532695 ("jobname") completed on c15-12 at Fri Nov 8 11:59:39 CET 2019
