<?xml version="1.0" encoding="ISO-8859-1"?>
<modeling>
 <generator>
  <i name="program" type="string">vasp </i>
  <i name="version" type="string">5.4.4.18Apr17-6-g9f103f2a35  </i>
  <i name="subversion" type="string">(build Jun 30 2017 11:15:00) complex            parallel </i>
  <i name="platform" type="string">STALLO_VASP_5.4.4 </i>
  <i name="date" type="string">2019 11 08 </i>
  <i name="time" type="string">11:59:21 </i>
 </generator>
 <incar>
  <i type="string" name="PREC">normal    ! low/normal/accurate</i>
  <i type="string" name="ALGO"> Fast      ! Algorithm for electronic re</i>
  <i type="int" name="ISPIN">     1</i>
  <i type="int" name="NELMIN">     4</i>
  <i name="EDIFF">      0.00001000</i>
  <i type="int" name="NSW">     0</i>
  <i name="ENCUT">    700.00000000</i>
  <i type="logical" name="LREAL"> F  </i>
  <i type="int" name="ISMEAR">    -5</i>
  <i name="SIGMA">      0.20000000</i>
  <i type="logical" name="LWAVE"> F  </i>
  <v type="int" name="KPOINT_BSE">    -1     0     0     0</v>
 </incar>
 <structure name="primitive_cell" >
  <crystal>
   <varray name="basis" >
    <v>       3.19031573       0.00000000       0.00000000 </v>
    <v>      -1.59515786       2.76289447       0.00000000 </v>
    <v>       0.00000000       0.00000000      26.87900430 </v>
   </varray>
   <i name="volume">    236.92513614 </i>
   <varray name="rec_basis" >
    <v>       0.31344860       0.18096963       0.00000000 </v>
    <v>       0.00000000       0.36193927       0.00000000 </v>
    <v>       0.00000000       0.00000000       0.03720376 </v>
   </varray>
  </crystal>
  <varray name="positions" >
   <v>       0.33333300      -0.33333300       0.13838872 </v>
   <v>      -0.33333400       0.33333300       0.19660830 </v>
   <v>      -0.33333300       0.33333300       0.08016914 </v>
  </varray>
 </structure>
 <varray name="primitive_index" >
  <v type="int" >        1 </v>
  <v type="int" >        3 </v>
  <v type="int" >        2 </v>
 </varray>
 <kpoints>
  <generation param="Gamma">
   <v type="int" name="divisions">       8        8        1 </v>
   <v name="usershift">      0.00000000       0.00000000       0.00000000 </v>
   <v name="genvec1">      0.12500000       0.00000000       0.00000000 </v>
   <v name="genvec2">      0.00000000       0.12500000       0.00000000 </v>
   <v name="genvec3">      0.00000000       0.00000000       1.00000000 </v>
   <v name="shift">      0.00000000       0.00000000       0.00000000 </v>
  </generation>
  <varray name="kpointlist" >
   <v>       0.00000000       0.00000000       0.00000000 </v>
   <v>       0.12500000       0.00000000       0.00000000 </v>
   <v>       0.25000000       0.00000000       0.00000000 </v>
   <v>       0.37500000       0.00000000       0.00000000 </v>
   <v>       0.50000000       0.00000000       0.00000000 </v>
   <v>       0.12500000       0.12500000       0.00000000 </v>
   <v>       0.25000000       0.12500000       0.00000000 </v>
   <v>       0.37500000       0.12500000       0.00000000 </v>
   <v>       0.25000000       0.25000000       0.00000000 </v>
   <v>       0.37500000       0.25000000       0.00000000 </v>
  </varray>
  <varray name="weights" >
   <v>       0.01562500 </v>
   <v>       0.09375000 </v>
   <v>       0.09375000 </v>
   <v>       0.09375000 </v>
   <v>       0.04687500 </v>
   <v>       0.09375000 </v>
   <v>       0.18750000 </v>
   <v>       0.18750000 </v>
   <v>       0.09375000 </v>
   <v>       0.09375000 </v>
  </varray>
  <varray name="tetrahedronlist"  type="int" >
   <v type="int" >       12        2        2        2        6 </v>
   <v type="int" >       12        1        2        2        2 </v>
   <v type="int" >        6        1        1        2        2 </v>
   <v type="int" >        6        2        2        6        6 </v>
   <v type="int" >       12        3        6        6        7 </v>
   <v type="int" >       12        2        3        6        6 </v>
   <v type="int" >       12        2        2        3        6 </v>
   <v type="int" >       12        3        6        7        7 </v>
   <v type="int" >       12        3        3        6        7 </v>
   <v type="int" >       12        2        3        3        6 </v>
   <v type="int" >       12        4        7        7        8 </v>
   <v type="int" >       12        3        4        7        7 </v>
   <v type="int" >       12        3        3        4        7 </v>
   <v type="int" >       12        4        7        8        8 </v>
   <v type="int" >       12        4        4        7        8 </v>
   <v type="int" >       12        3        4        4        7 </v>
   <v type="int" >       12        5        8        8        8 </v>
   <v type="int" >       12        4        5        8        8 </v>
   <v type="int" >       12        4        4        5        8 </v>
   <v type="int" >        6        5        5        8        8 </v>
   <v type="int" >       12        4        5        5        8 </v>
   <v type="int" >       12        7        7        7        9 </v>
   <v type="int" >       12        6        7        7        7 </v>
   <v type="int" >        6        6        6        7        7 </v>
   <v type="int" >        6        7        7        9        9 </v>
   <v type="int" >       12        8        9        9       10 </v>
   <v type="int" >       12        7        8        9        9 </v>
   <v type="int" >       12        7        7        8        9 </v>
   <v type="int" >       12        8        9       10       10 </v>
   <v type="int" >       12        8        8        9       10 </v>
   <v type="int" >       12        7        8        8        9 </v>
   <v type="int" >        6        8        8       10       10 </v>
   <v type="int" >       12        8        8        8       10 </v>
   <v type="int" >        6       10       10       10       10 </v>
   <v type="int" >       12        9       10       10       10 </v>
   <v type="int" >        6        9        9       10       10 </v>
  </varray>
  <i name="volumeweight">      0.00260417 </i>
 </kpoints>
 <parameters>
  <separator name="general" >
   <i type="string" name="SYSTEM">unknown system</i>
   <i type="logical" name="LCOMPAT"> F  </i>
  </separator>
  <separator name="electronic" >
   <i type="string" name="PREC">normal</i>
   <i name="ENMAX">    700.00000000</i>
   <i name="ENAUG">    345.27800000</i>
   <i name="EDIFF">      0.00001000</i>
   <i type="int" name="IALGO">    68</i>
   <i type="int" name="IWAVPR">    10</i>
   <i type="int" name="NBANDS">    14</i>
   <i name="NELECT">     18.00000000</i>
   <i type="int" name="TURBO">     0</i>
   <i type="int" name="IRESTART">     0</i>
   <i type="int" name="NREBOOT">     0</i>
   <i type="int" name="NMIN">     0</i>
   <i name="EREF">      0.00000000</i>
   <separator name="electronic smearing" >
    <i type="int" name="ISMEAR">    -5</i>
    <i name="SIGMA">      0.20000000</i>
    <i name="KSPACING">      0.50000000</i>
    <i type="logical" name="KGAMMA"> T  </i>
   </separator>
   <separator name="electronic projectors" >
    <i type="logical" name="LREAL"> F  </i>
    <v name="ROPT">      0.00000000      0.00000000</v>
    <i type="int" name="LMAXPAW">  -100</i>
    <i type="int" name="LMAXMIX">     2</i>
    <i type="logical" name="NLSPLINE"> F  </i>
   </separator>
   <separator name="electronic startup" >
    <i type="int" name="ISTART">     0</i>
    <i type="int" name="ICHARG">     2</i>
    <i type="int" name="INIWAV">     1</i>
   </separator>
   <separator name="electronic spin" >
    <i type="int" name="ISPIN">     1</i>
    <i type="logical" name="LNONCOLLINEAR"> F  </i>
    <v name="MAGMOM">      1.00000000      1.00000000      1.00000000</v>
    <i name="NUPDOWN">     -1.00000000</i>
    <i type="logical" name="LSORBIT"> F  </i>
    <v name="SAXIS">      0.00000000      0.00000000      1.00000000</v>
    <i type="logical" name="LSPIRAL"> F  </i>
    <v name="QSPIRAL">      0.00000000      0.00000000      0.00000000</v>
    <i type="logical" name="LZEROZ"> F  </i>
   </separator>
   <separator name="electronic exchange-correlation" >
    <i type="logical" name="LASPH"> F  </i>
    <i type="logical" name="LMETAGGA"> F  </i>
   </separator>
   <separator name="electronic convergence" >
    <i type="int" name="NELM">    60</i>
    <i type="int" name="NELMDL">    -5</i>
    <i type="int" name="NELMIN">     4</i>
    <i name="ENINI">    700.00000000</i>
    <separator name="electronic convergence detail" >
     <i type="logical" name="LDIAG"> T  </i>
     <i type="logical" name="LSUBROT"> F  </i>
     <i name="WEIMIN">      0.00000000</i>
     <i name="EBREAK">      0.00000018</i>
     <i name="DEPER">      0.30000000</i>
     <i type="int" name="NRMM">     4</i>
     <i name="TIME">      0.40000000</i>
    </separator>
   </separator>
   <separator name="electronic mixer" >
    <i name="AMIX">      0.40000000</i>
    <i name="BMIX">      1.00000000</i>
    <i name="AMIN">      0.10000000</i>
    <i name="AMIX_MAG">      1.60000000</i>
    <i name="BMIX_MAG">      1.00000000</i>
    <separator name="electronic mixer details" >
     <i type="int" name="IMIX">     4</i>
     <i type="logical" name="MIXFIRST"> F  </i>
     <i type="int" name="MAXMIX">   -45</i>
     <i name="WC">    100.00000000</i>
     <i type="int" name="INIMIX">     1</i>
     <i type="int" name="MIXPRE">     1</i>
     <i type="int" name="MREMOVE">     5</i>
    </separator>
   </separator>
   <separator name="electronic dipolcorrection" >
    <i type="logical" name="LDIPOL"> F  </i>
    <i type="logical" name="LMONO"> F  </i>
    <i type="int" name="IDIPOL">     0</i>
    <i name="EPSILON">      1.00000000</i>
    <v name="DIPOL">   -100.00000000   -100.00000000   -100.00000000</v>
    <i name="EFIELD">      0.00000000</i>
   </separator>
  </separator>
  <separator name="grids" >
   <i type="int" name="NGX">    24</i>
   <i type="int" name="NGY">    24</i>
   <i type="int" name="NGZ">   180</i>
   <i type="int" name="NGXF">    48</i>
   <i type="int" name="NGYF">    48</i>
   <i type="int" name="NGZF">   360</i>
   <i type="logical" name="ADDGRID"> F  </i>
  </separator>
  <separator name="ionic" >
   <i type="int" name="NSW">     0</i>
   <i type="int" name="IBRION">    -1</i>
   <i type="int" name="MDALGO">     0</i>
   <i type="int" name="ISIF">     2</i>
   <i name="PSTRESS">      0.00000000</i>
   <i name="EDIFFG">      0.00010000</i>
   <i type="int" name="NFREE">     0</i>
   <i name="POTIM">      0.50000000</i>
   <i name="SMASS">     -3.00000000</i>
   <i name="SCALEE">      1.00000000</i>
  </separator>
  <separator name="ionic md" >
   <i name="TEBEG">      0.00010000</i>
   <i name="TEEND">      0.00010000</i>
   <i type="int" name="NBLOCK">     1</i>
   <i type="int" name="KBLOCK">     1</i>
   <i type="int" name="NPACO">   256</i>
   <i name="APACO">     16.00000000</i>
  </separator>
  <separator name="symmetry" >
   <i type="int" name="ISYM">     2</i>
   <i name="SYMPREC">      0.00001000</i>
  </separator>
  <separator name="dos" >
   <i type="int" name="LORBIT">     0</i>
   <v name="RWIGS">     -1.00000000     -1.00000000</v>
   <i type="int" name="NEDOS">   301</i>
   <i name="EMIN">     10.00000000</i>
   <i name="EMAX">    -10.00000000</i>
   <i name="EFERMI">      0.00000000</i>
  </separator>
  <separator name="writing" >
   <i type="int" name="NWRITE">     2</i>
   <i type="logical" name="LWAVE"> F  </i>
   <i type="logical" name="LDOWNSAMPLE"> F  </i>
   <i type="logical" name="LCHARG"> T  </i>
   <i type="logical" name="LPARD"> F  </i>
   <i type="logical" name="LVTOT"> F  </i>
   <i type="logical" name="LVHAR"> F  </i>
   <i type="logical" name="LELF"> F  </i>
   <i type="logical" name="LOPTICS"> F  </i>
   <v name="STM">      0.00000000      0.00000000      0.00000000      0.00000000      0.00000000      0.00000000      0.00000000</v>
  </separator>
  <separator name="performance" >
   <i type="int" name="NPAR">     2</i>
   <i type="int" name="NSIM">     4</i>
   <i type="int" name="NBLK">    -1</i>
   <i type="logical" name="LPLANE"> T  </i>
   <i type="logical" name="LSCALAPACK"> T  </i>
   <i type="logical" name="LSCAAWARE"> F  </i>
   <i type="logical" name="LSCALU"> F  </i>
   <i type="logical" name="LASYNC"> F  </i>
   <i type="logical" name="LORBITALREAL"> F  </i>
  </separator>
  <separator name="miscellaneous" >
   <i type="int" name="IDIOT">     3</i>
   <i type="int" name="ISPECIAL">     0</i>
   <i type="logical" name="LMUSIC"> F  </i>
   <v name="POMASS">     95.94000000     32.06600000</v>
   <v name="DARWINR">      0.00000000      0.00000000</v>
   <v name="DARWINV">      1.00000000      1.00000000</v>
   <i type="logical" name="LCORR"> T  </i>
  </separator>
  <i type="logical" name="GGA_COMPAT"> T  </i>
  <i type="logical" name="LBERRY"> F  </i>
  <i type="int" name="ICORELEVEL">     0</i>
  <i type="logical" name="LDAU"> F  </i>
  <i type="int" name="I_CONSTRAINED_M">     0</i>
  <separator name="electronic exchange-correlation" >
   <i type="string" name="GGA">--</i>
   <i type="int" name="VOSKOWN">     0</i>
   <i type="logical" name="LHFCALC"> F  </i>
   <i type="string" name="PRECFOCK"></i>
   <i type="logical" name="LSYMGRAD"> F  </i>
   <i type="logical" name="LHFONE"> F  </i>
   <i type="logical" name="LRHFCALC"> F  </i>
   <i type="logical" name="LTHOMAS"> F  </i>
   <i type="logical" name="LMODELHF"> F  </i>
   <i name="ENCUT4O">     -1.00000000</i>
   <i type="int" name="EXXOEP">     0</i>
   <i type="int" name="FOURORBIT">     0</i>
   <i name="AEXX">      0.00000000</i>
   <i name="HFALPHA">      0.00000000</i>
   <i name="MCALPHA">      0.00000000</i>
   <i name="ALDAX">      1.00000000</i>
   <i name="AGGAX">      1.00000000</i>
   <i name="ALDAC">      1.00000000</i>
   <i name="AGGAC">      1.00000000</i>
   <i type="int" name="NKREDX">     1</i>
   <i type="int" name="NKREDY">     1</i>
   <i type="int" name="NKREDZ">     1</i>
   <i type="logical" name="SHIFTRED"> F  </i>
   <i type="logical" name="ODDONLY"> F  </i>
   <i type="logical" name="EVENONLY"> F  </i>
   <i type="int" name="LMAXFOCK">     0</i>
   <i type="int" name="NMAXFOCKAE">     0</i>
   <i type="logical" name="LFOCKAEDFT"> F  </i>
   <i name="HFSCREEN">      0.00000000</i>
   <i name="HFSCREENC">      0.00000000</i>
   <i type="int" name="NBANDSGWLOW">     0</i>
  </separator>
  <separator name="vdW DFT" >
   <i type="logical" name="LUSE_VDW"> F  </i>
   <i name="Zab_VDW">     -0.84910000</i>
   <i name="PARAM1">      0.12340000</i>
   <i name="PARAM2">      1.00000000</i>
   <i name="PARAM3">      0.00000000</i>
  </separator>
  <separator name="model GW" >
   <i type="int" name="MODEL_GW">     0</i>
   <i name="MODEL_EPS0">     47.38502723</i>
   <i name="MODEL_ALPHA">      1.00000000</i>
  </separator>
  <separator name="linear response parameters" >
   <i type="logical" name="LEPSILON"> F  </i>
   <i type="logical" name="LRPA"> F  </i>
   <i type="logical" name="LNABLA"> F  </i>
   <i type="logical" name="LVEL"> F  </i>
   <i type="int" name="KINTER">     0</i>
   <i name="CSHIFT">      0.10000000</i>
   <i name="OMEGAMAX">     -1.00000000</i>
   <i name="DEG_THRESHOLD">      0.00200000</i>
   <i name="RTIME">     -0.10000000</i>
   <i name="WPLASMAI">      0.00000000</i>
   <v name="DFIELD">      0.00000000      0.00000000      0.00000000</v>
   <v name="WPLASMA">      0.00000000      0.00000000      0.00000000      0.00000000      0.00000000      0.00000000      0.00000000      0.00000000      0.00000000</v>
  </separator>
  <separator name="orbital magnetization" >
   <i type="logical" name="NUCIND"> F  </i>
   <v name="MAGPOS">      0.00000000      0.00000000      0.00000000</v>
   <i type="logical" name="LNICSALL"> T  </i>
   <i type="logical" name="ORBITALMAG"> F  </i>
   <i type="logical" name="LMAGBLOCH"> F  </i>
   <i type="logical" name="LCHIMAG"> F  </i>
   <i type="logical" name="LGAUGE"> T  </i>
   <i type="int" name="MAGATOM">     0</i>
   <v name="MAGDIPOL">      0.00000000      0.00000000      0.00000000</v>
   <v name="AVECCONST">      0.00000000      0.00000000      0.00000000</v>
  </separator>
  <separator name="response functions" >
   <i type="logical" name="LADDER"> F  </i>
   <i type="logical" name="LRPAFORCE"> F  </i>
   <i type="logical" name="LFXC"> F  </i>
   <i type="logical" name="LHARTREE"> T  </i>
   <i type="int" name="IBSE">     0</i>
   <v type="int" name="KPOINT">    -1     0     0     0</v>
   <i type="logical" name="LTCTE"> F  </i>
   <i type="logical" name="LTETE"> F  </i>
   <i type="logical" name="LTRIPLET"> F  </i>
   <i type="logical" name="LFXCEPS"> F  </i>
   <i type="logical" name="LFXHEG"> F  </i>
   <i type="int" name="NATURALO">     2</i>
   <i type="logical" name="L2ORDER"> F  </i>
   <i type="logical" name="LMP2LT"> F  </i>
   <i type="logical" name="LUSEW"> F  </i>
   <i name="ENCUTGW">     -2.00000000</i>
   <i name="ENCUTGWSOFT">     -2.00000000</i>
   <i name="ENCUTLF">     -1.00000000</i>
   <i type="int" name="LMAXMP2">    -1</i>
   <i name="SCISSOR">      0.00000000</i>
   <i type="int" name="NOMEGA">     0</i>
   <i type="int" name="NOMEGAR">     0</i>
   <i type="int" name="NBANDSGW">    -1</i>
   <i type="int" name="NBANDSO">    -1</i>
   <i type="int" name="NBANDSV">    -1</i>
   <i type="int" name="NELM">     1</i>
   <i type="int" name="NELMHF">     1</i>
   <i type="int" name="DIM">     3</i>
   <i type="int" name="ANTIRES">     0</i>
   <i name="OMEGAMAX">    -30.00000000</i>
   <i name="OMEGAMIN">    -30.00000000</i>
   <i name="OMEGATL">   -200.00000000</i>
   <i type="int" name="OMEGAGRID">   140</i>
   <i name="CSHIFT">     -0.10000000</i>
   <i type="logical" name="SELFENERGY"> F  </i>
   <i type="logical" name="LSPECTRAL"> F  </i>
   <i type="logical" name="LSPECTRALGW"> F  </i>
   <i type="logical" name="LSINGLES"> F  </i>
   <i type="logical" name="LFERMIGW"> F  </i>
   <i type="logical" name="ODDONLYGW"> F  </i>
   <i type="logical" name="EVENONLYGW"> F  </i>
   <i type="int" name="NKREDLFX">     1</i>
   <i type="int" name="NKREDLFY">     1</i>
   <i type="int" name="NKREDLFZ">     1</i>
   <i type="int" name="MAXMEM">  2800</i>
   <i type="int" name="TELESCOPE">     0</i>
   <i type="int" name="TAUPAR">     1</i>
   <i type="int" name="OMEGAPAR">    -1</i>
   <i name="LAMBDA">      1.00000000</i>
  </separator>
  <separator name="External order field" >
   <i name="OFIELD_KAPPA">      0.00000000</i>
   <v name="OFIELD_K">      0.00000000      0.00000000      0.00000000</v>
   <i name="OFIELD_Q6_NEAR">      0.00000000</i>
   <i name="OFIELD_Q6_FAR">      0.00000000</i>
   <i name="OFIELD_A">      0.00000000</i>
  </separator>
 </parameters>
 <atominfo>
  <atoms>       3 </atoms>
  <types>       2 </types>
  <array name="atoms" >
   <dimension dim="1">ion</dimension>
   <field type="string">element</field>
   <field type="int">atomtype</field>
   <set>
    <rc><c>Mo</c><c>   1</c></rc>
    <rc><c>S </c><c>   2</c></rc>
    <rc><c>S </c><c>   2</c></rc>
   </set>
  </array>
  <array name="atomtypes" >
   <dimension dim="1">type</dimension>
   <field type="int">atomspertype</field>
   <field type="string">element</field>
   <field>mass</field>
   <field>valence</field>
   <field type="string">pseudopotential</field>
   <set>
    <rc><c>   1</c><c>Mo</c><c>     95.94000000</c><c>      6.00000000</c><c> PAW_PBE Mo 08Apr2002                   </c></rc>
    <rc><c>   2</c><c>S </c><c>     32.06600000</c><c>      6.00000000</c><c>  PAW_PBE S 17Jan2003                   </c></rc>
   </set>
  </array>
 </atominfo>
 <structure name="initialpos" >
  <crystal>
   <varray name="basis" >
    <v>       3.19031573       0.00000000       0.00000000 </v>
    <v>      -1.59515786       2.76289447       0.00000000 </v>
    <v>       0.00000000       0.00000000      26.87900430 </v>
   </varray>
   <i name="volume">    236.92513614 </i>
   <varray name="rec_basis" >
    <v>       0.31344860       0.18096963       0.00000000 </v>
    <v>       0.00000000       0.36193927       0.00000000 </v>
    <v>       0.00000000       0.00000000       0.03720376 </v>
   </varray>
  </crystal>
  <varray name="positions" >
   <v>       0.33333300       0.66666700       0.13838872 </v>
   <v>       0.66666700       0.33333300       0.08016914 </v>
   <v>       0.66666600       0.33333300       0.19660830 </v>
  </varray>
 </structure>
 <calculation>
  <scstep>
   <time name="dav">    0.58    0.59</time>
   <time name="total">    0.72    0.73</time>
   <energy>
    <i name="alphaZ">     12.51390764 </i>
    <i name="ewald">   4286.25630342 </i>
    <i name="hartreedc">  -4967.71356795 </i>
    <i name="XCdc">    -36.31055783 </i>
    <i name="pawpsdc">    406.88651198 </i>
    <i name="pawaedc">   -329.34073203 </i>
    <i name="eentropy">      0.00000000 </i>
    <i name="bandstr">     10.02750166 </i>
    <i name="atom">    771.16207120 </i>
    <i name="e_fr_energy">    153.48143809 </i>
    <i name="e_wo_entrp">    153.48143809 </i>
    <i name="e_0_energy">    153.48143809 </i>
   </energy>
  </scstep>
  <scstep>
   <time name="dav">    0.91    0.91</time>
   <time name="total">    0.91    0.91</time>
   <energy>
    <i name="e_fr_energy">     -4.38578518 </i>
    <i name="e_wo_entrp">     -4.38578518 </i>
    <i name="e_0_energy">     -4.38578518 </i>
   </energy>
  </scstep>
  <scstep>
   <time name="dav">    0.72    0.73</time>
   <time name="total">    0.72    0.73</time>
   <energy>
    <i name="e_fr_energy">    -22.99705029 </i>
    <i name="e_wo_entrp">    -22.99705029 </i>
    <i name="e_0_energy">    -22.99705029 </i>
   </energy>
  </scstep>
  <scstep>
   <time name="dav">    0.70    0.70</time>
   <time name="total">    0.70    0.70</time>
   <energy>
    <i name="e_fr_energy">    -23.39884695 </i>
    <i name="e_wo_entrp">    -23.39884695 </i>
    <i name="e_0_energy">    -23.39884695 </i>
   </energy>
  </scstep>
  <scstep>
   <time name="dav">    0.71    0.71</time>
   <time name="total">    0.77    0.77</time>
   <energy>
    <i name="e_fr_energy">    -23.40985416 </i>
    <i name="e_wo_entrp">    -23.40985416 </i>
    <i name="e_0_energy">    -23.40985416 </i>
   </energy>
  </scstep>
  <scstep>
   <time name="diag">    0.11    0.11</time>
   <time name="diis">    0.53    0.53</time>
   <time name="orth">    0.01    0.01</time>
   <time name="total">    0.83    0.83</time>
   <energy>
    <i name="e_fr_energy">    -22.24954004 </i>
    <i name="e_wo_entrp">    -22.24954004 </i>
    <i name="e_0_energy">    -22.24954004 </i>
   </energy>
  </scstep>
  <scstep>
   <time name="diag">    0.11    0.11</time>
   <time name="diis">    0.52    0.52</time>
   <time name="orth">    0.01    0.01</time>
   <time name="total">    0.81    0.81</time>
   <energy>
    <i name="e_fr_energy">    -21.86441686 </i>
    <i name="e_wo_entrp">    -21.86441686 </i>
    <i name="e_0_energy">    -21.86441686 </i>
   </energy>
  </scstep>
  <scstep>
   <time name="diag">    0.11    0.11</time>
   <time name="diis">    0.53    0.53</time>
   <time name="orth">    0.01    0.01</time>
   <time name="total">    0.82    0.82</time>
   <energy>
    <i name="e_fr_energy">    -21.80453933 </i>
    <i name="e_wo_entrp">    -21.80453933 </i>
    <i name="e_0_energy">    -21.80453933 </i>
   </energy>
  </scstep>
  <scstep>
   <time name="diag">    0.11    0.11</time>
   <time name="diis">    0.58    0.58</time>
   <time name="orth">    0.01    0.01</time>
   <time name="total">    0.86    0.87</time>
   <energy>
    <i name="e_fr_energy">    -21.79969466 </i>
    <i name="e_wo_entrp">    -21.79969466 </i>
    <i name="e_0_energy">    -21.79969466 </i>
   </energy>
  </scstep>
  <scstep>
   <time name="diag">    0.11    0.11</time>
   <time name="diis">    0.58    0.58</time>
   <time name="orth">    0.01    0.01</time>
   <time name="total">    0.87    0.87</time>
   <energy>
    <i name="e_fr_energy">    -21.79895518 </i>
    <i name="e_wo_entrp">    -21.79895518 </i>
    <i name="e_0_energy">    -21.79895518 </i>
   </energy>
  </scstep>
  <scstep>
   <time name="diag">    0.11    0.11</time>
   <time name="diis">    0.55    0.55</time>
   <time name="orth">    0.01    0.01</time>
   <time name="total">    0.84    0.84</time>
   <energy>
    <i name="e_fr_energy">    -21.79886700 </i>
    <i name="e_wo_entrp">    -21.79886700 </i>
    <i name="e_0_energy">    -21.79886700 </i>
   </energy>
  </scstep>
  <scstep>
   <time name="diag">    0.11    0.11</time>
   <time name="diis">    0.54    0.54</time>
   <time name="orth">    0.01    0.01</time>
   <time name="total">    0.82    0.83</time>
   <energy>
    <i name="e_fr_energy">    -21.79867125 </i>
    <i name="e_wo_entrp">    -21.79867125 </i>
    <i name="e_0_energy">    -21.79867125 </i>
   </energy>
  </scstep>
  <scstep>
   <time name="diag">    0.11    0.11</time>
   <time name="diis">    0.49    0.49</time>
   <time name="orth">    0.01    0.01</time>
   <time name="total">    0.78    0.78</time>
   <energy>
    <i name="e_fr_energy">    -21.79893301 </i>
    <i name="e_wo_entrp">    -21.79893301 </i>
    <i name="e_0_energy">    -21.79893301 </i>
   </energy>
  </scstep>
  <scstep>
   <time name="diag">    0.11    0.11</time>
   <time name="diis">    0.45    0.45</time>
   <time name="orth">    0.01    0.01</time>
   <time name="total">    0.75    0.75</time>
   <energy>
    <i name="e_fr_energy">    -21.79896556 </i>
    <i name="e_wo_entrp">    -21.79896556 </i>
    <i name="e_0_energy">    -21.79896556 </i>
   </energy>
  </scstep>
  <scstep>
   <time name="diag">    0.11    0.11</time>
   <time name="diis">    0.37    0.37</time>
   <time name="orth">    0.01    0.01</time>
   <time name="total">    0.66    0.66</time>
   <energy>
    <i name="e_fr_energy">    -21.79907614 </i>
    <i name="e_wo_entrp">    -21.79907614 </i>
    <i name="e_0_energy">    -21.79907614 </i>
   </energy>
  </scstep>
  <scstep>
   <time name="diag">    0.11    0.11</time>
   <time name="diis">    0.36    0.36</time>
   <time name="orth">    0.01    0.01</time>
   <time name="total">    0.66    0.66</time>
   <energy>
    <i name="e_fr_energy">    -21.79910849 </i>
    <i name="e_wo_entrp">    -21.79910849 </i>
    <i name="e_0_energy">    -21.79910849 </i>
   </energy>
  </scstep>
  <scstep>
   <time name="diag">    0.11    0.11</time>
   <time name="diis">    0.33    0.33</time>
   <time name="orth">    0.01    0.01</time>
   <time name="total">    0.63    0.63</time>
   <energy>
    <i name="e_fr_energy">    -21.79915225 </i>
    <i name="e_wo_entrp">    -21.79915225 </i>
    <i name="e_0_energy">    -21.79915225 </i>
   </energy>
  </scstep>
  <scstep>
   <time name="diag">    0.11    0.11</time>
   <time name="diis">    0.29    0.29</time>
   <time name="orth">    0.01    0.01</time>
   <time name="total">    0.52    0.52</time>
   <energy>
    <i name="alphaZ">     12.51390764 </i>
    <i name="ewald">   4286.25630342 </i>
    <i name="hartreedc">  -4980.70005925 </i>
    <i name="XCdc">    -35.19773758 </i>
    <i name="pawpsdc">    471.80391157 </i>
    <i name="pawaedc">   -395.99524600 </i>
    <i name="eentropy">      0.00000000 </i>
    <i name="bandstr">   -151.64231111 </i>
    <i name="atom">    771.16207120 </i>
    <i name="e_fr_energy">    -21.79916012 </i>
    <i name="e_wo_entrp">    -21.79916012 </i>
    <i name="e_0_energy">    -21.79916012 </i>
   </energy>
  </scstep>
  <structure>
   <crystal>
    <varray name="basis" >
     <v>       3.19031573       0.00000000       0.00000000 </v>
     <v>      -1.59515786       2.76289447       0.00000000 </v>
     <v>       0.00000000       0.00000000      26.87900430 </v>
    </varray>
    <i name="volume">    236.92513614 </i>
    <varray name="rec_basis" >
     <v>       0.31344860       0.18096963       0.00000000 </v>
     <v>       0.00000000       0.36193927       0.00000000 </v>
     <v>       0.00000000       0.00000000       0.03720376 </v>
    </varray>
   </crystal>
   <varray name="positions" >
    <v>       0.33333300       0.66666700       0.13838872 </v>
    <v>       0.66666700       0.33333300       0.08016914 </v>
    <v>       0.66666600       0.33333300       0.19660830 </v>
   </varray>
  </structure>
  <varray name="forces" >
   <v>      -0.00000000      -0.00000000       0.00000000 </v>
   <v>       0.00000000       0.00000000       0.11482167 </v>
   <v>       0.00000000      -0.00000000      -0.11482167 </v>
  </varray>
  <varray name="stress" >
   <v>      -0.82556268      -0.00000000       0.00000000 </v>
   <v>       0.00000000      -0.82556268       0.00000000 </v>
   <v>      -0.00000000       0.00000000      -2.45972541 </v>
  </varray>
  <energy>
   <i name="e_fr_energy">    -22.39006918 </i>
   <i name="e_wo_entrp">    -22.39006918 </i>
   <i name="e_0_energy">      0.00000000 </i>
  </energy>
  <time name="totalsc">   15.42   15.65</time>
  <eigenvalues>
   <array>
    <dimension dim="1">band</dimension>
    <dimension dim="2">kpoint</dimension>
    <dimension dim="3">spin</dimension>
    <field>eigene</field>
    <field>occ</field>
    <set>
     <set comment="spin 1">
      <set comment="kpoint 1">
       <r>  -17.4635    1.0000 </r>
       <r>  -16.2554    1.0000 </r>
       <r>   -8.9844    1.0000 </r>
       <r>   -6.0236    1.0000 </r>
       <r>   -6.0236    1.0000 </r>
       <r>   -5.1623    1.0000 </r>
       <r>   -4.9180    1.0000 </r>
       <r>   -4.9180    1.0000 </r>
       <r>   -3.4419    1.0000 </r>
       <r>   -0.6704    0.0000 </r>
       <r>   -0.6703    0.0000 </r>
       <r>   -0.4466    0.0000 </r>
       <r>   -0.4466    0.0000 </r>
       <r>    1.9921    0.0000 </r>
      </set>
      <set comment="kpoint 2">
       <r>  -17.2493    1.0000 </r>
       <r>  -16.1530    1.0000 </r>
       <r>   -8.7398    1.0000 </r>
       <r>   -6.4870    1.0000 </r>
       <r>   -5.9703    1.0000 </r>
       <r>   -5.7892    1.0000 </r>
       <r>   -5.2538    1.0000 </r>
       <r>   -4.4848    1.0000 </r>
       <r>   -3.5803    1.0000 </r>
       <r>   -0.9504    0.0000 </r>
       <r>   -0.8846    0.0000 </r>
       <r>   -0.6832    0.0000 </r>
       <r>   -0.3156    0.0000 </r>
       <r>    2.3609    0.0000 </r>
      </set>
      <set comment="kpoint 3">
       <r>  -16.6806    1.0000 </r>
       <r>  -15.8843    1.0000 </r>
       <r>   -8.3738    1.0000 </r>
       <r>   -7.2136    1.0000 </r>
       <r>   -6.9512    1.0000 </r>
       <r>   -5.8888    1.0000 </r>
       <r>   -5.2021    1.0000 </r>
       <r>   -4.7364    1.0000 </r>
       <r>   -4.1483    1.0000 </r>
       <r>   -1.2745    0.0000 </r>
       <r>   -1.0979    0.0000 </r>
       <r>   -0.5558    0.0000 </r>
       <r>    0.3014    0.0000 </r>
       <r>    3.1778    0.0000 </r>
      </set>
      <set comment="kpoint 4">
       <r>  -16.0055    1.0000 </r>
       <r>  -15.5758    1.0000 </r>
       <r>   -8.8110    1.0000 </r>
       <r>   -7.8186    1.0000 </r>
       <r>   -7.3464    1.0000 </r>
       <r>   -6.3861    1.0000 </r>
       <r>   -5.1457    1.0000 </r>
       <r>   -4.6116    1.0000 </r>
       <r>   -4.3435    1.0000 </r>
       <r>   -1.2794    0.0000 </r>
       <r>   -1.0005    0.0000 </r>
       <r>    0.1627    0.0000 </r>
       <r>    0.6947    0.0000 </r>
       <r>    3.7017    0.0000 </r>
      </set>
      <set comment="kpoint 5">
       <r>  -15.6772    1.0000 </r>
       <r>  -15.4325    1.0000 </r>
       <r>   -9.1437    1.0000 </r>
       <r>   -8.1835    1.0000 </r>
       <r>   -7.4727    1.0000 </r>
       <r>   -6.5667    1.0000 </r>
       <r>   -5.2845    1.0000 </r>
       <r>   -4.3845    1.0000 </r>
       <r>   -4.0627    1.0000 </r>
       <r>   -1.2571    0.0000 </r>
       <r>   -0.7411    0.0000 </r>
       <r>    0.4613    0.0000 </r>
       <r>    0.8102    0.0000 </r>
       <r>    2.7406    0.0000 </r>
      </set>
      <set comment="kpoint 6">
       <r>  -16.8565    1.0000 </r>
       <r>  -15.9660    1.0000 </r>
       <r>   -8.3926    1.0000 </r>
       <r>   -7.0510    1.0000 </r>
       <r>   -6.5325    1.0000 </r>
       <r>   -6.0676    1.0000 </r>
       <r>   -5.4497    1.0000 </r>
       <r>   -4.3503    1.0000 </r>
       <r>   -3.9522    1.0000 </r>
       <r>   -1.3496    0.0000 </r>
       <r>   -0.9714    0.0000 </r>
       <r>   -0.9597    0.0000 </r>
       <r>    0.2793    0.0000 </r>
       <r>    2.9556    0.0000 </r>
      </set>
      <set comment="kpoint 7">
       <r>  -16.2229    1.0000 </r>
       <r>  -15.6675    1.0000 </r>
       <r>   -8.4553    1.0000 </r>
       <r>   -7.4777    1.0000 </r>
       <r>   -7.2146    1.0000 </r>
       <r>   -6.5719    1.0000 </r>
       <r>   -5.3503    1.0000 </r>
       <r>   -4.7125    1.0000 </r>
       <r>   -4.2358    1.0000 </r>
       <r>   -1.4330    0.0000 </r>
       <r>   -0.9845    0.0000 </r>
       <r>   -0.4897    0.0000 </r>
       <r>    0.7871    0.0000 </r>
       <r>    3.9287    0.0000 </r>
      </set>
      <set comment="kpoint 8">
       <r>  -15.6925    1.0000 </r>
       <r>  -15.4236    1.0000 </r>
       <r>   -8.8563    1.0000 </r>
       <r>   -8.2408    1.0000 </r>
       <r>   -7.3450    1.0000 </r>
       <r>   -6.5887    1.0000 </r>
       <r>   -5.3351    1.0000 </r>
       <r>   -5.1943    1.0000 </r>
       <r>   -3.9090    1.0000 </r>
       <r>   -1.2382    0.0000 </r>
       <r>   -0.7279    0.0000 </r>
       <r>    0.1320    0.0000 </r>
       <r>    0.8208    0.0000 </r>
       <r>    3.2674    0.0000 </r>
      </set>
      <set comment="kpoint 9">
       <r>  -15.7074    1.0000 </r>
       <r>  -15.4146    1.0000 </r>
       <r>   -8.4959    1.0000 </r>
       <r>   -8.2916    1.0000 </r>
       <r>   -7.0178    1.0000 </r>
       <r>   -6.6370    1.0000 </r>
       <r>   -6.3179    1.0000 </r>
       <r>   -5.0609    1.0000 </r>
       <r>   -3.9378    1.0000 </r>
       <r>   -1.2892    0.0000 </r>
       <r>   -0.6782    0.0000 </r>
       <r>   -0.3665    0.0000 </r>
       <r>    1.1089    0.0000 </r>
       <r>    4.0998    0.0000 </r>
      </set>
      <set comment="kpoint 10">
       <r>  -15.4725    1.0000 </r>
       <r>  -15.2954    1.0000 </r>
       <r>   -8.6760    1.0000 </r>
       <r>   -8.3269    1.0000 </r>
       <r>   -7.3022    1.0000 </r>
       <r>   -6.6396    1.0000 </r>
       <r>   -6.4094    1.0000 </r>
       <r>   -5.4472    1.0000 </r>
       <r>   -3.5704    1.0000 </r>
       <r>   -1.6149    0.0000 </r>
       <r>   -0.3082    0.0000 </r>
       <r>   -0.1276    0.0000 </r>
       <r>    1.2542    0.0000 </r>
       <r>    3.5103    0.0000 </r>
      </set>
     </set>
    </set>
   </array>
  </eigenvalues>
  <separator name="orbital magnetization" >
   <v name="MAGDIPOLOUT">      0.00000000      0.00000000      0.00000000</v>
  </separator>
  <dos>
   <i name="efermi">     -3.42254998 </i>
   <total>
    <array>
     <dimension dim="1">gridpoints</dimension>
     <dimension dim="2">spin</dimension>
     <field>energy</field>
     <field>total</field>
     <field>integrated</field>
     <set>
      <set comment="spin 1">
       <r>   -19.4635     0.0000     0.0000 </r>
       <r>   -19.3783     0.0000     0.0000 </r>
       <r>   -19.2931     0.0000     0.0000 </r>
       <r>   -19.2078     0.0000     0.0000 </r>
       <r>   -19.1226     0.0000     0.0000 </r>
       <r>   -19.0374     0.0000     0.0000 </r>
       <r>   -18.9522     0.0000     0.0000 </r>
       <r>   -18.8670     0.0000     0.0000 </r>
       <r>   -18.7818     0.0000     0.0000 </r>
       <r>   -18.6966     0.0000     0.0000 </r>
       <r>   -18.6114     0.0000     0.0000 </r>
       <r>   -18.5262     0.0000     0.0000 </r>
       <r>   -18.4409     0.0000     0.0000 </r>
       <r>   -18.3557     0.0000     0.0000 </r>
       <r>   -18.2705     0.0000     0.0000 </r>
       <r>   -18.1853     0.0000     0.0000 </r>
       <r>   -18.1001     0.0000     0.0000 </r>
       <r>   -18.0149     0.0000     0.0000 </r>
       <r>   -17.9297     0.0000     0.0000 </r>
       <r>   -17.8445     0.0000     0.0000 </r>
       <r>   -17.7593     0.0000     0.0000 </r>
       <r>   -17.6741     0.0000     0.0000 </r>
       <r>   -17.5888     0.0000     0.0000 </r>
       <r>   -17.5036     0.0000     0.0000 </r>
       <r>   -17.4184     0.1842     0.0042 </r>
       <r>   -17.3332     0.5326     0.0347 </r>
       <r>   -17.2480     0.4779     0.0944 </r>
       <r>   -17.1628     0.5174     0.1368 </r>
       <r>   -17.0776     0.5569     0.1826 </r>
       <r>   -16.9924     0.5964     0.2317 </r>
       <r>   -16.9072     0.6359     0.2842 </r>
       <r>   -16.8219     0.6622     0.3398 </r>
       <r>   -16.7367     0.6694     0.3966 </r>
       <r>   -16.6515     0.6853     0.4540 </r>
       <r>   -16.5663     0.7183     0.5139 </r>
       <r>   -16.4811     0.7513     0.5765 </r>
       <r>   -16.3959     0.7844     0.6419 </r>
       <r>   -16.3107     0.8174     0.7101 </r>
       <r>   -16.2255     1.3860     0.7892 </r>
       <r>   -16.1403     2.0612     0.9707 </r>
       <r>   -16.0550     2.3562     1.1589 </r>
       <r>   -15.9698     2.6760     1.3727 </r>
       <r>   -15.8846     2.8920     1.6102 </r>
       <r>   -15.7994     3.2301     1.8710 </r>
       <r>   -15.7142     3.5688     2.1607 </r>
       <r>   -15.6290     4.2223     2.6174 </r>
       <r>   -15.5438     4.2448     2.9751 </r>
       <r>   -15.4586     3.7673     3.3668 </r>
       <r>   -15.3734     3.3483     3.7769 </r>
       <r>   -15.2882     0.0000     4.0000 </r>
       <r>   -15.2029     0.0000     4.0000 </r>
       <r>   -15.1177     0.0000     4.0000 </r>
       <r>   -15.0325     0.0000     4.0000 </r>
       <r>   -14.9473     0.0000     4.0000 </r>
       <r>   -14.8621     0.0000     4.0000 </r>
       <r>   -14.7769     0.0000     4.0000 </r>
       <r>   -14.6917     0.0000     4.0000 </r>
       <r>   -14.6065     0.0000     4.0000 </r>
       <r>   -14.5213     0.0000     4.0000 </r>
       <r>   -14.4360     0.0000     4.0000 </r>
       <r>   -14.3508     0.0000     4.0000 </r>
       <r>   -14.2656     0.0000     4.0000 </r>
       <r>   -14.1804     0.0000     4.0000 </r>
       <r>   -14.0952     0.0000     4.0000 </r>
       <r>   -14.0100     0.0000     4.0000 </r>
       <r>   -13.9248     0.0000     4.0000 </r>
       <r>   -13.8396     0.0000     4.0000 </r>
       <r>   -13.7544     0.0000     4.0000 </r>
       <r>   -13.6691     0.0000     4.0000 </r>
       <r>   -13.5839     0.0000     4.0000 </r>
       <r>   -13.4987     0.0000     4.0000 </r>
       <r>   -13.4135     0.0000     4.0000 </r>
       <r>   -13.3283     0.0000     4.0000 </r>
       <r>   -13.2431     0.0000     4.0000 </r>
       <r>   -13.1579     0.0000     4.0000 </r>
       <r>   -13.0727     0.0000     4.0000 </r>
       <r>   -12.9875     0.0000     4.0000 </r>
       <r>   -12.9022     0.0000     4.0000 </r>
       <r>   -12.8170     0.0000     4.0000 </r>
       <r>   -12.7318     0.0000     4.0000 </r>
       <r>   -12.6466     0.0000     4.0000 </r>
       <r>   -12.5614     0.0000     4.0000 </r>
       <r>   -12.4762     0.0000     4.0000 </r>
       <r>   -12.3910     0.0000     4.0000 </r>
       <r>   -12.3058     0.0000     4.0000 </r>
       <r>   -12.2206     0.0000     4.0000 </r>
       <r>   -12.1354     0.0000     4.0000 </r>
       <r>   -12.0501     0.0000     4.0000 </r>
       <r>   -11.9649     0.0000     4.0000 </r>
       <r>   -11.8797     0.0000     4.0000 </r>
       <r>   -11.7945     0.0000     4.0000 </r>
       <r>   -11.7093     0.0000     4.0000 </r>
       <r>   -11.6241     0.0000     4.0000 </r>
       <r>   -11.5389     0.0000     4.0000 </r>
       <r>   -11.4537     0.0000     4.0000 </r>
       <r>   -11.3685     0.0000     4.0000 </r>
       <r>   -11.2832     0.0000     4.0000 </r>
       <r>   -11.1980     0.0000     4.0000 </r>
       <r>   -11.1128     0.0000     4.0000 </r>
       <r>   -11.0276     0.0000     4.0000 </r>
       <r>   -10.9424     0.0000     4.0000 </r>
       <r>   -10.8572     0.0000     4.0000 </r>
       <r>   -10.7720     0.0000     4.0000 </r>
       <r>   -10.6868     0.0000     4.0000 </r>
       <r>   -10.6016     0.0000     4.0000 </r>
       <r>   -10.5163     0.0000     4.0000 </r>
       <r>   -10.4311     0.0000     4.0000 </r>
       <r>   -10.3459     0.0000     4.0000 </r>
       <r>   -10.2607     0.0000     4.0000 </r>
       <r>   -10.1755     0.0000     4.0000 </r>
       <r>   -10.0903     0.0000     4.0000 </r>
       <r>   -10.0051     0.0000     4.0000 </r>
       <r>    -9.9199     0.0000     4.0000 </r>
       <r>    -9.8347     0.0000     4.0000 </r>
       <r>    -9.7494     0.0000     4.0000 </r>
       <r>    -9.6642     0.0000     4.0000 </r>
       <r>    -9.5790     0.0000     4.0000 </r>
       <r>    -9.4938     0.0000     4.0000 </r>
       <r>    -9.4086     0.0000     4.0000 </r>
       <r>    -9.3234     0.0000     4.0000 </r>
       <r>    -9.2382     0.0000     4.0000 </r>
       <r>    -9.1530     0.0000     4.0000 </r>
       <r>    -9.0678     0.4700     4.0178 </r>
       <r>    -8.9826     1.0035     4.0804 </r>
       <r>    -8.8973     1.7985     4.1998 </r>
       <r>    -8.8121     2.6348     4.3963 </r>
       <r>    -8.7269     2.8510     4.6374 </r>
       <r>    -8.6417     3.8177     4.9542 </r>
       <r>    -8.5565     3.1539     5.2512 </r>
       <r>    -8.4713     4.9466     5.5219 </r>
       <r>    -8.3861     3.8101     5.9765 </r>
       <r>    -8.3009     5.2620     6.1688 </r>
       <r>    -8.2157     2.7248     6.4996 </r>
       <r>    -8.1304     1.3273     6.6387 </r>
       <r>    -8.0452     1.1918     6.7461 </r>
       <r>    -7.9600     1.0562     6.8418 </r>
       <r>    -7.8748     0.9207     6.9261 </r>
       <r>    -7.7896     0.8328     6.9994 </r>
       <r>    -7.7044     0.8376     7.0706 </r>
       <r>    -7.6192     0.8423     7.1422 </r>
       <r>    -7.5340     0.8471     7.2141 </r>
       <r>    -7.4488     1.8897     7.3025 </r>
       <r>    -7.3635     4.8451     7.5894 </r>
       <r>    -7.2783     5.1704     8.1234 </r>
       <r>    -7.1931     5.1456     8.5437 </r>
       <r>    -7.1079     3.2543     8.9016 </r>
       <r>    -7.0227     1.4462     9.0995 </r>
       <r>    -6.9375     1.1867     9.2078 </r>
       <r>    -6.8523     1.0905     9.3048 </r>
       <r>    -6.7671     0.9943     9.3936 </r>
       <r>    -6.6819     0.8982     9.4743 </r>
       <r>    -6.5967    11.7265    10.0545 </r>
       <r>    -6.5114     3.8255    10.6372 </r>
       <r>    -6.4262     2.3885    10.9037 </r>
       <r>    -6.3410     2.3847    11.1871 </r>
       <r>    -6.2558     1.8379    11.3535 </r>
       <r>    -6.1706     1.7262    11.5053 </r>
       <r>    -6.0854     1.6145    11.6477 </r>
       <r>    -6.0002     3.5115    11.8137 </r>
       <r>    -5.9150     2.1539    12.0604 </r>
       <r>    -5.8298     1.6839    12.2370 </r>
       <r>    -5.7445     0.8721    12.3355 </r>
       <r>    -5.6593     0.8657    12.4095 </r>
       <r>    -5.5741     0.8593    12.4830 </r>
       <r>    -5.4889     0.8529    12.5560 </r>
       <r>    -5.4037     3.7246    12.7354 </r>
       <r>    -5.3185     9.3205    13.2477 </r>
       <r>    -5.2333     7.0003    13.9634 </r>
       <r>    -5.1481     1.8490    14.3486 </r>
       <r>    -5.0629     1.4985    14.4856 </r>
       <r>    -4.9776     1.4512    14.6111 </r>
       <r>    -4.8924     1.4761    14.7338 </r>
       <r>    -4.8072     1.6596    14.8674 </r>
       <r>    -4.7220     4.2902    15.0342 </r>
       <r>    -4.6368     3.2702    15.4303 </r>
       <r>    -4.5516     2.2954    15.6422 </r>
       <r>    -4.4664     2.7098    15.8460 </r>
       <r>    -4.3812     0.6701    15.9897 </r>
       <r>    -4.2960     1.3745    16.0326 </r>
       <r>    -4.2107     4.2297    16.2759 </r>
       <r>    -4.1255     3.7120    16.6118 </r>
       <r>    -4.0403     3.3940    16.9151 </r>
       <r>    -3.9551     3.0286    17.1887 </r>
       <r>    -3.8699     2.1128    17.4122 </r>
       <r>    -3.7847     1.7992    17.5789 </r>
       <r>    -3.6995     1.4856    17.7188 </r>
       <r>    -3.6143     1.1720    17.8321 </r>
       <r>    -3.5291     0.8532    17.9628 </r>
       <r>    -3.4439     0.0194    18.0000 </r>
       <r>    -3.3586     0.0000    18.0000 </r>
       <r>    -3.2734     0.0000    18.0000 </r>
       <r>    -3.1882     0.0000    18.0000 </r>
       <r>    -3.1030     0.0000    18.0000 </r>
       <r>    -3.0178     0.0000    18.0000 </r>
       <r>    -2.9326     0.0000    18.0000 </r>
       <r>    -2.8474     0.0000    18.0000 </r>
       <r>    -2.7622     0.0000    18.0000 </r>
       <r>    -2.6770     0.0000    18.0000 </r>
       <r>    -2.5917     0.0000    18.0000 </r>
       <r>    -2.5065     0.0000    18.0000 </r>
       <r>    -2.4213     0.0000    18.0000 </r>
       <r>    -2.3361     0.0000    18.0000 </r>
       <r>    -2.2509     0.0000    18.0000 </r>
       <r>    -2.1657     0.0000    18.0000 </r>
       <r>    -2.0805     0.0000    18.0000 </r>
       <r>    -1.9953     0.0000    18.0000 </r>
       <r>    -1.9101     0.0000    18.0000 </r>
       <r>    -1.8248     0.0000    18.0000 </r>
       <r>    -1.7396     0.0000    18.0000 </r>
       <r>    -1.6544     0.0000    18.0000 </r>
       <r>    -1.5692     0.6950    18.0603 </r>
       <r>    -1.4840     0.9174    18.1290 </r>
       <r>    -1.3988     5.8444    18.3577 </r>
       <r>    -1.3136     8.2424    18.9749 </r>
       <r>    -1.2284     0.9482    19.7092 </r>
       <r>    -1.1432     0.8015    19.7837 </r>
       <r>    -1.0580     3.6120    19.9049 </r>
       <r>    -0.9727     6.0690    20.5081 </r>
       <r>    -0.8875     5.6231    20.9352 </r>
       <r>    -0.8023     4.7808    21.3286 </r>
       <r>    -0.7171     4.0633    21.8264 </r>
       <r>    -0.6319     3.2907    22.1423 </r>
       <r>    -0.5467     2.4554    22.3867 </r>
       <r>    -0.4615     2.7174    22.5942 </r>
       <r>    -0.3763     2.6302    22.8145 </r>
       <r>    -0.2911     1.8713    23.0726 </r>
       <r>    -0.2058     2.3687    23.2532 </r>
       <r>    -0.1206     2.0360    23.5019 </r>
       <r>    -0.0354     1.9757    23.6728 </r>
       <r>     0.0498     1.9153    23.8386 </r>
       <r>     0.1350     1.7531    23.9988 </r>
       <r>     0.2202     1.9151    24.1721 </r>
       <r>     0.3054     1.6232    24.3190 </r>
       <r>     0.3906     1.2505    24.4415 </r>
       <r>     0.4758     0.9585    24.5327 </r>
       <r>     0.5611     1.0582    24.6187 </r>
       <r>     0.6463     1.1579    24.7131 </r>
       <r>     0.7315     3.0073    24.8481 </r>
       <r>     0.8167    13.8262    25.2822 </r>
       <r>     0.9019     1.8076    25.5099 </r>
       <r>     0.9871     1.4794    25.6500 </r>
       <r>     1.0723     1.1512    25.7621 </r>
       <r>     1.1575     1.1042    25.8530 </r>
       <r>     1.2427     1.2683    25.9541 </r>
       <r>     1.3280     0.0000    26.0000 </r>
       <r>     1.4132     0.0000    26.0000 </r>
       <r>     1.4984     0.0000    26.0000 </r>
       <r>     1.5836     0.0000    26.0000 </r>
       <r>     1.6688     0.0000    26.0000 </r>
       <r>     1.7540     0.0000    26.0000 </r>
       <r>     1.8392     0.0000    26.0000 </r>
       <r>     1.9244     0.0000    26.0000 </r>
       <r>     2.0096     0.0242    26.0002 </r>
       <r>     2.0948     0.1416    26.0073 </r>
       <r>     2.1801     0.2591    26.0244 </r>
       <r>     2.2653     0.3765    26.0514 </r>
       <r>     2.3505     0.4939    26.0885 </r>
       <r>     2.4357     0.3333    26.1180 </r>
       <r>     2.5209     0.3540    26.1473 </r>
       <r>     2.6061     0.3746    26.1783 </r>
       <r>     2.6913     0.3952    26.2111 </r>
       <r>     2.7765     0.4667    26.2466 </r>
       <r>     2.8617     0.6080    26.2924 </r>
       <r>     2.9470     0.7492    26.3502 </r>
       <r>     3.0322     0.8618    26.4189 </r>
       <r>     3.1174     0.9711    26.4970 </r>
       <r>     3.2026     1.0995    26.5847 </r>
       <r>     3.2878     1.6567    26.6940 </r>
       <r>     3.3730     1.6912    26.8366 </r>
       <r>     3.4582     1.7256    26.9822 </r>
       <r>     3.5434     2.0788    27.1725 </r>
       <r>     3.6286     2.1148    27.3511 </r>
       <r>     3.7139     2.0773    27.5324 </r>
       <r>     3.7991     1.5970    27.6890 </r>
       <r>     3.8843     1.1167    27.8046 </r>
       <r>     3.9695     1.3477    27.9122 </r>
       <r>     4.0547     0.4662    27.9895 </r>
       <r>     4.1399     0.0000    28.0000 </r>
       <r>     4.2251     0.0000    28.0000 </r>
       <r>     4.3103     0.0000    28.0000 </r>
       <r>     4.3955     0.0000    28.0000 </r>
       <r>     4.4807     0.0000    28.0000 </r>
       <r>     4.5660     0.0000    28.0000 </r>
       <r>     4.6512     0.0000    28.0000 </r>
       <r>     4.7364     0.0000    28.0000 </r>
       <r>     4.8216     0.0000    28.0000 </r>
       <r>     4.9068     0.0000    28.0000 </r>
       <r>     4.9920     0.0000    28.0000 </r>
       <r>     5.0772     0.0000    28.0000 </r>
       <r>     5.1624     0.0000    28.0000 </r>
       <r>     5.2476     0.0000    28.0000 </r>
       <r>     5.3329     0.0000    28.0000 </r>
       <r>     5.4181     0.0000    28.0000 </r>
       <r>     5.5033     0.0000    28.0000 </r>
       <r>     5.5885     0.0000    28.0000 </r>
       <r>     5.6737     0.0000    28.0000 </r>
       <r>     5.7589     0.0000    28.0000 </r>
       <r>     5.8441     0.0000    28.0000 </r>
       <r>     5.9293     0.0000    28.0000 </r>
       <r>     6.0145     0.0000    28.0000 </r>
       <r>     6.0998     0.0000    28.0000 </r>
      </set>
     </set>
    </array>
   </total>
  </dos>
 </calculation>
 <structure name="finalpos" >
  <crystal>
   <varray name="basis" >
    <v>       3.19031573       0.00000000       0.00000000 </v>
    <v>      -1.59515786       2.76289447       0.00000000 </v>
    <v>       0.00000000       0.00000000      26.87900430 </v>
   </varray>
   <i name="volume">    236.92513614 </i>
   <varray name="rec_basis" >
    <v>       0.31344860       0.18096963       0.00000000 </v>
    <v>       0.00000000       0.36193927       0.00000000 </v>
    <v>       0.00000000       0.00000000       0.03720376 </v>
   </varray>
  </crystal>
  <varray name="positions" >
   <v>       0.33333300       0.66666700       0.13838872 </v>
   <v>       0.66666700       0.33333300       0.08016914 </v>
   <v>       0.66666600       0.33333300       0.19660830 </v>
  </varray>
 </structure>
</modeling>
