unknown system                          
   1.00000000000000     
     3.190316    0.000000    0.000000
    -1.595158    2.762894    0.000000
     0.000000    0.000000   14.879004
   Mo   S 
     2     4
Direct
  0.333333  0.666667  0.250000
  0.666667  0.333333  0.750000
  0.333333  0.666667  0.855174
  0.666667  0.333333  0.144826
  0.666666  0.333333  0.355174
  0.333334  0.666667  0.644826
 
   40   40  180
 0.39696     0.39943     0.40683     0.41918     0.43644     0.45850     0.48515     0.51607     0.55078     0.58870    
 0.62909     0.67106     0.71354     0.75534     0.79516     0.83169     0.86364     0.88984     0.90931     0.92130    
 0.92534     0.92128     0.90927     0.88979     0.86356     0.83160     0.79506     0.75524     0.71344     0.67097    
 0.62901     0.58863     0.55071     0.51601     0.48511     0.45846     0.43641     0.41916     0.40682     0.39943    
 0.39943     0.39943     0.40436     0.41424     0.42906     0.44875     0.47316     0.50202     0.53493     0.57138    
 0.61069     0.65205     0.69449     0.73686     0.77792     0.81635     0.85083     0.88012     0.90314     0.91900    
 0.92708     0.92707     0.91897     0.90310     0.88006     0.85075     0.81626     0.77782     0.73676     0.69439    
 0.65196     0.61061     0.57131     0.53488     0.50197     0.47312     0.44872     0.42904     0.41423     0.40435    
 0.40682     0.40436     0.40683     0.41424     0.42660     0.44389     0.46601     0.49274     0.52377     0.55862    
 0.59673     0.63734     0.67957     0.72234     0.76445     0.80461     0.84148     0.87375     0.90025     0.91995    
 0.93210     0.93620     0.93208     0.91992     0.90020     0.87369     0.84140     0.80452     0.76435     0.72224    
 0.67947     0.63726     0.59666     0.55856     0.52371     0.49269     0.46597     0.44386     0.42658     0.41423    
 0.41916     0.41423     0.41423     0.41917     0.42905     0.44389     0.46363     0.48813     0.51714     0.55027    
 0.58701     0.62669     0.66850     0.71145     0.75440     0.79608     0.83515     0.87027     0.90015     0.92366    
 0.93989     0.94817     0.94816     0.93986     0.92362     0.90009     0.87019     0.83507     0.79599     0.75431    
 0.71137     0.66842     0.62662     0.58694     0.55021     0.51708     0.48808     0.46359     0.44386     0.42904    
 0.43641     0.42904     0.42659     0.42904     0.43642     0.44874     0.46600     0.48812     0.51494     0.54614    
 0.58130     0.61982     0.66097     0.70384     0.74734     0.79027     0.83129     0.86903     0.90214     0.92938    
 0.94967     0.96219     0.96642     0.96218     0.94964     0.92933     0.90208     0.86895     0.83121     0.79019    
 0.74726     0.70376     0.66089     0.61975     0.58123     0.54608     0.51489     0.48808     0.46597     0.44872    
 0.45846     0.44872     0.44387     0.44387     0.44873     0.45848     0.47315     0.49273     0.51712     0.54613    
 0.57941     0.61646     0.65662     0.69907     0.74279     0.78662     0.82927     0.86933     0.90543     0.93621    
 0.96048     0.97725     0.98582     0.98582     0.97724     0.96046     0.93617     0.90537     0.86926     0.82919    
 0.78654     0.74271     0.69899     0.65655     0.61639     0.57935     0.54609     0.51708     0.49269     0.47312    
 0.48511     0.47313     0.46598     0.46361     0.46599     0.47314     0.48513     0.50200     0.52375     0.55025    
 0.58128     0.61644     0.65519     0.69678     0.74028     0.78459     0.82843     0.87043     0.90917     0.94323    
 0.97129     0.99223      1.0052      1.0095      1.0052     0.99222     0.97127     0.94319     0.90912     0.87036    
 0.82835     0.78450     0.74020     0.69671     0.65513     0.61639     0.58123     0.55021     0.52371     0.50197    
 0.51601     0.50198     0.49270     0.48810     0.48811     0.49272     0.50200     0.51604     0.53491     0.55860    
 0.58699     0.61980     0.65660     0.69677     0.73947     0.78369     0.82820     0.87164     0.91255     0.94950    
 0.98106      1.0060      1.0232      1.0320      1.0320      1.0232      1.0060     0.98104     0.94946     0.91250    
 0.87156     0.82812     0.78361     0.73941     0.69671     0.65654     0.61975     0.58694     0.55856     0.53487    
 0.55071     0.53488     0.52372     0.51710     0.51491     0.51711     0.52374     0.53490     0.55075     0.57135    
 0.59670     0.62667     0.66094     0.69904     0.74025     0.78367     0.82816     0.87238     0.91490     0.95420    
 0.98883      1.0174      1.0387      1.0519      1.0564      1.0519      1.0387      1.0174     0.98881     0.95417    
 0.91485     0.87232     0.82809     0.78362     0.74020     0.69899     0.66089     0.62662     0.59666     0.57131    
 0.58862     0.57132     0.55858     0.55022     0.54611     0.54612     0.55024     0.55859     0.57134     0.58866    
 0.61065     0.63731     0.66847     0.70381     0.74276     0.78455     0.82817     0.87237     0.91573     0.95672    
 0.99383      1.0256      1.0507      1.0681      1.0770      1.0770      1.0681      1.0507      1.0256     0.99381    
 0.95669     0.91568     0.87232     0.82812     0.78451     0.74271     0.70375     0.66843     0.63726     0.61061    
 0.62900     0.61062     0.59667     0.58696     0.58126     0.57938     0.58127     0.58698     0.59670     0.61065    
 0.62905     0.65201     0.67952     0.71141     0.74731     0.78659     0.82839     0.87160     0.91488     0.95672    
 0.99556      1.0299      1.0582      1.0794      1.0926      1.0970      1.0926      1.0794      1.0582      1.0299    
 0.99554     0.95669     0.91484     0.87157     0.82836     0.78654     0.74726     0.71137     0.67948     0.65196    
 0.67096     0.65197     0.63728     0.62664     0.61977     0.61642     0.61643     0.61980     0.62667     0.63731    
 0.65201     0.67101     0.69443     0.72228     0.75435     0.79023     0.82922     0.87040     0.91253     0.95419    
 0.99383      1.0299      1.0608      1.0853      1.1023      1.1110      1.1110      1.1023      1.0853      1.0608    
  1.0299     0.99381     0.95416     0.91250     0.87037     0.82919     0.79018     0.75431     0.72224     0.69440    
 0.71344     0.69439     0.67949     0.66844     0.66092     0.65657     0.65517     0.65659     0.66094     0.66848    
 0.67953     0.69445     0.71349     0.73680     0.76439     0.79602     0.83123     0.86928     0.90913     0.94948    
 0.98882      1.0256      1.0582      1.0853      1.1056      1.1182      1.1224      1.1182      1.1056      1.0853    
  1.0582      1.0256     0.98881     0.94945     0.90911     0.86927     0.83121     0.79598     0.76435     0.73677    
 0.75524     0.73677     0.72225     0.71139     0.70378     0.69902     0.69674     0.69676     0.69904     0.70381    
 0.71143     0.72231     0.73683     0.75529     0.77787     0.80455     0.83508     0.86896     0.90537     0.94319    
 0.98104      1.0174      1.0507      1.0795      1.1023      1.1182      1.1263      1.1263      1.1182      1.1023    
  1.0794      1.0507      1.0174     0.98103     0.94318     0.90538     0.86896     0.83506     0.80451     0.77783    
 0.79507     0.77783     0.76436     0.75432     0.74729     0.74274     0.74024     0.73945     0.74026     0.74277    
 0.74732     0.75438     0.76442     0.77789     0.79512     0.81630     0.84142     0.87019     0.90207     0.93616    
 0.97126      1.0059      1.0387      1.0681      1.0926      1.1110      1.1225      1.1263      1.1225      1.1110    
  1.0926      1.0681      1.0387      1.0060     0.97126     0.93617     0.90209     0.87019     0.84139     0.81626    
 0.83161     0.81627     0.80452     0.79600     0.79021     0.78657     0.78454     0.78366     0.78367     0.78457    
 0.78661     0.79025     0.79606     0.80458     0.81631     0.83165     0.85079     0.87370     0.90008     0.92931    
 0.96043     0.99220      1.0232      1.0519      1.0770      1.0970      1.1110      1.1182      1.1182      1.1110    
  1.0970      1.0770      1.0519      1.0232     0.99221     0.96045     0.92934     0.90009     0.87368     0.85075    
 0.86356     0.85076     0.84139     0.83507     0.83122     0.82922     0.82838     0.82816     0.82814     0.82819    
 0.82842     0.82926     0.83128     0.83514     0.84145     0.85080     0.86360     0.88008     0.90020     0.92360    
 0.94961     0.97721      1.0051      1.0320      1.0564      1.0770      1.0926      1.1023      1.1056      1.1023    
  1.0926      1.0770      1.0564      1.0320      1.0052     0.97723     0.94964     0.92363     0.90020     0.88005    
 0.88978     0.88006     0.87369     0.87019     0.86897     0.86929     0.87040     0.87160     0.87236     0.87237    
 0.87163     0.87044     0.86934     0.86904     0.87027     0.87374     0.88010     0.88981     0.90310     0.91990    
 0.93983     0.96213     0.98577      1.0095      1.0320      1.0519      1.0681      1.0794      1.0853      1.0853    
  1.0794      1.0681      1.0519      1.0320      1.0095     0.98581     0.96217     0.93987     0.91992     0.90309    
 0.90927     0.90309     0.90020     0.90010     0.90209     0.90539     0.90915     0.91254     0.91488     0.91573    
 0.91490     0.91256     0.90918     0.90545     0.90217     0.90016     0.90025     0.90313     0.90929     0.91896    
 0.93205     0.94811     0.96637     0.98577      1.0051      1.0232      1.0387      1.0507      1.0582      1.0608    
  1.0582      1.0507      1.0387      1.0232      1.0052     0.98582     0.96642     0.94816     0.93209     0.91897    
 0.92128     0.91897     0.91992     0.92363     0.92935     0.93619     0.94322     0.94950     0.95421     0.95674    
 0.95674     0.95423     0.94952     0.94326     0.93625     0.92941     0.92369     0.91998     0.91900     0.92129    
 0.92705     0.93616     0.94812     0.96213     0.97719     0.99219      1.0060      1.0174      1.0256      1.0299    
  1.0299      1.0256      1.0174      1.0060     0.99223     0.97725     0.96219     0.94817     0.93620     0.92707    
 0.92534     0.92707     0.93208     0.93987     0.94965     0.96048     0.97130     0.98108     0.98886     0.99387    
 0.99560     0.99387     0.98887     0.98110     0.97134     0.96053     0.94971     0.93993     0.93213     0.92710    
 0.92534     0.92706     0.93206     0.93983     0.94961     0.96043     0.97125     0.98103     0.98882     0.99383    
 0.99557     0.99384     0.98883     0.98106     0.97129     0.96048     0.94967     0.93989     0.93210     0.92708    
 0.92130     0.92708     0.93620     0.94816     0.96219     0.97726     0.99225      1.0060      1.0174      1.0256    
  1.0299      1.0299      1.0256      1.0175      1.0060     0.99229     0.97731     0.96225     0.94822     0.93623    
 0.92709     0.92129     0.91896     0.91991     0.92361     0.92932     0.93616     0.94318     0.94947     0.95419    
 0.95672     0.95672     0.95421     0.94950     0.94323     0.93621     0.92938     0.92367     0.91996     0.91899    
 0.90931     0.91900     0.93210     0.94817     0.96643     0.98584      1.0052      1.0233      1.0388      1.0508    
  1.0583      1.0609      1.0583      1.0508      1.0388      1.0233      1.0052     0.98589     0.96648     0.94822    
 0.93212     0.91900     0.90929     0.90309     0.90019     0.90009     0.90209     0.90538     0.90913     0.91253    
 0.91488     0.91572     0.91489     0.91256     0.90918     0.90543     0.90214     0.90015     0.90025     0.90314    
 0.88984     0.90313     0.91996     0.93990     0.96220     0.98584      1.0096      1.0321      1.0520      1.0681    
  1.0795      1.0854      1.0854      1.0795      1.0681      1.0520      1.0321      1.0096     0.98589     0.96225    
 0.93993     0.91997     0.90314     0.88981     0.88007     0.87369     0.87020     0.86897     0.86928     0.87040    
 0.87161     0.87237     0.87237     0.87163     0.87044     0.86934     0.86903     0.87026     0.87376     0.88013    
 0.86364     0.88012     0.90025     0.92367     0.94968     0.97727      1.0052      1.0321      1.0565      1.0770    
  1.0926      1.1024      1.1057      1.1024      1.0926      1.0770      1.0565      1.0321      1.0052     0.97732    
 0.94971     0.92369     0.90026     0.88011     0.86360     0.85077     0.84141     0.83509     0.83123     0.82922    
 0.82840     0.82818     0.82816     0.82819     0.82843     0.82928     0.83129     0.83514     0.84147     0.85084    
 0.83170     0.85083     0.87375     0.90015     0.92939     0.96050     0.99226      1.0233      1.0520      1.0770    
  1.0971      1.1111      1.1183      1.1183      1.1111      1.0971      1.0770      1.0520      1.0233     0.99230    
 0.96054     0.92940     0.90016     0.87375     0.85081     0.83165     0.81629     0.80455     0.79602     0.79022    
 0.78658     0.78456     0.78368     0.78368     0.78458     0.78663     0.79028     0.79608     0.80460     0.81636    
 0.79517     0.81635     0.84147     0.87027     0.90216     0.93623     0.97132      1.0060      1.0388      1.0681    
  1.0926      1.1111      1.1225      1.1264      1.1225      1.1111      1.0926      1.0681      1.0388      1.0060    
 0.97135     0.93625     0.90215     0.87026     0.84146     0.81632     0.79512     0.77787     0.76440     0.75435    
 0.74729     0.74276     0.74026     0.73947     0.74027     0.74279     0.74735     0.75440     0.76444     0.77792    
 0.75534     0.77793     0.80461     0.83515     0.86905     0.90545     0.94326     0.98110      1.0175      1.0508    
  1.0795      1.1024      1.1183      1.1264      1.1264      1.1183      1.1024      1.0795      1.0508      1.0175    
 0.98111     0.94326     0.90545     0.86903     0.83513     0.80458     0.77788     0.75529     0.73682     0.72229    
 0.71141     0.70380     0.69904     0.69677     0.69677     0.69906     0.70384     0.71146     0.72233     0.73686    
 0.71354     0.73687     0.76445     0.79609     0.83131     0.86936     0.90920     0.94953     0.98888      1.0257    
  1.0583      1.0854      1.1057      1.1183      1.1225      1.1183      1.1057      1.0854      1.0583      1.0256    
 0.98887     0.94953     0.90919     0.86934     0.83128     0.79606     0.76441     0.73681     0.71349     0.69444    
 0.67952     0.66847     0.66094     0.65660     0.65519     0.65661     0.66097     0.66851     0.67956     0.69448    
 0.67105     0.69449     0.72235     0.75441     0.79029     0.82930     0.87047     0.91259     0.95425     0.99389    
  1.0299      1.0609      1.0854      1.1024      1.1111      1.1111      1.1024      1.0854      1.0609      1.0299    
 0.99387     0.95423     0.91257     0.87044     0.82926     0.79026     0.75438     0.72230     0.69444     0.67101    
 0.65201     0.63731     0.62667     0.61980     0.61645     0.61645     0.61982     0.62670     0.63735     0.65205    
 0.62909     0.65206     0.67958     0.71147     0.74736     0.78665     0.82847     0.87167     0.91494     0.95677    
 0.99562      1.0299      1.0583      1.0795      1.0926      1.0971      1.0926      1.0795      1.0583      1.0299    
 0.99559     0.95674     0.91490     0.87163     0.82842     0.78661     0.74733     0.71143     0.67953     0.65201    
 0.62905     0.61065     0.59670     0.58699     0.58129     0.57941     0.58129     0.58701     0.59673     0.61069    
 0.58870     0.61069     0.63736     0.66853     0.70386     0.74282     0.78462     0.82824     0.87242     0.91578    
 0.95678     0.99389      1.0256      1.0508      1.0681      1.0770      1.0770      1.0681      1.0508      1.0256    
 0.99386     0.95674     0.91573     0.87237     0.82817     0.78456     0.74277     0.70382     0.66848     0.63731    
 0.61066     0.58866     0.57134     0.55860     0.55026     0.54614     0.54614     0.55026     0.55863     0.57138    
 0.55078     0.57138     0.59674     0.62672     0.66099     0.69909     0.74031     0.78373     0.82821     0.87242    
 0.91494     0.95426     0.98888      1.0175      1.0388      1.0520      1.0565      1.0520      1.0388      1.0175    
 0.98886     0.95421     0.91489     0.87237     0.82814     0.78366     0.74025     0.69904     0.66094     0.62667    
 0.59670     0.57135     0.55075     0.53491     0.52375     0.51713     0.51494     0.51713     0.52376     0.53494    
 0.51607     0.53494     0.55864     0.58703     0.61984     0.65665     0.69681     0.73952     0.78373     0.82823    
 0.87167     0.91260     0.94954     0.98110      1.0060      1.0233      1.0321      1.0321      1.0233      1.0060    
 0.98108     0.94950     0.91254     0.87161     0.82817     0.78366     0.73945     0.69675     0.65659     0.61979    
 0.58698     0.55860     0.53491     0.51604     0.50200     0.49273     0.48812     0.48813     0.49274     0.50202    
 0.48516     0.50203     0.52378     0.55029     0.58132     0.61649     0.65523     0.69681     0.74031     0.78462    
 0.82846     0.87046     0.90920     0.94326     0.97133     0.99227      1.0052      1.0096      1.0052     0.99225    
 0.97130     0.94322     0.90914     0.87039     0.82839     0.78454     0.74024     0.69675     0.65517     0.61643    
 0.58126     0.55024     0.52374     0.50200     0.48513     0.47315     0.46600     0.46363     0.46601     0.47316    
 0.45850     0.47317     0.49275     0.51715     0.54616     0.57944     0.61649     0.65665     0.69910     0.74282    
 0.78665     0.82929     0.86936     0.90545     0.93623     0.96051     0.97728     0.98585     0.98584     0.97726    
 0.96048     0.93619     0.90539     0.86928     0.82921     0.78657     0.74274     0.69902     0.65658     0.61643    
 0.57938     0.54611     0.51711     0.49272     0.47314     0.45848     0.44874     0.44389     0.44389     0.44875    
 0.43644     0.44876     0.46602     0.48814     0.51496     0.54616     0.58132     0.61984     0.66099     0.70386    
 0.74737     0.79030     0.83131     0.86904     0.90215     0.92939     0.94968     0.96220     0.96643     0.96219    
 0.94965     0.92935     0.90210     0.86897     0.83122     0.79020     0.74728     0.70378     0.66092     0.61978    
 0.58126     0.54611     0.51491     0.48810     0.46599     0.44874     0.43642     0.42905     0.42660     0.42906    
 0.41918     0.42906     0.44390     0.46364     0.48814     0.51715     0.55029     0.58703     0.62671     0.66852    
 0.71147     0.75442     0.79610     0.83516     0.87027     0.90015     0.92366     0.93989     0.94817     0.94817    
 0.93987     0.92363     0.90009     0.87020     0.83508     0.79600     0.75432     0.71138     0.66844     0.62664    
 0.58696     0.55023     0.51711     0.48810     0.46361     0.44388     0.42905     0.41917     0.41424     0.41424    
 0.40683     0.41425     0.42661     0.44390     0.46602     0.49275     0.52378     0.55864     0.59674     0.63735    
 0.67957     0.72234     0.76446     0.80462     0.84148     0.87376     0.90025     0.91995     0.93210     0.93620    
 0.93208     0.91992     0.90019     0.87368     0.84140     0.80452     0.76436     0.72225     0.67949     0.63727    
 0.59667     0.55857     0.52372     0.49271     0.46598     0.44387     0.42659     0.41423     0.40683     0.40436    
 0.39943     0.40437     0.41425     0.42906     0.44876     0.47317     0.50203     0.53494     0.57139     0.61070    
 0.65206     0.69449     0.73686     0.77792     0.81635     0.85084     0.88013     0.90314     0.91899     0.92708    
 0.92707     0.91897     0.90309     0.88006     0.85075     0.81626     0.77783     0.73677     0.69440     0.65197    
 0.61062     0.57131     0.53488     0.50198     0.47313     0.44872     0.42904     0.41423     0.40436     0.39943    
 0.40483     0.40739     0.41509     0.42794     0.44592     0.46894     0.49679     0.52914     0.56550     0.60526    
 0.64764     0.69169     0.73631     0.78022     0.82209     0.86051     0.89414     0.92175     0.94227     0.95491    
 0.95917     0.95489     0.94223     0.92169     0.89407     0.86043     0.82199     0.78012     0.73621     0.69160    
 0.64756     0.60519     0.56544     0.52908     0.49675     0.46891     0.44590     0.42792     0.41508     0.40739    
 0.40739     0.40739     0.41278     0.42357     0.43978     0.46136     0.48816     0.51990     0.55616     0.59637    
 0.63979     0.68550     0.73242     0.77930     0.82474     0.86729     0.90549     0.93797     0.96350     0.98110    
 0.99007     0.99006     0.98107     0.96346     0.93791     0.90542     0.86720     0.82464     0.77919     0.73232    
 0.68541     0.63971     0.59631     0.55610     0.51985     0.48811     0.46132     0.43975     0.42355     0.41277    
 0.41508     0.41226     0.41509     0.42357     0.43773     0.45757     0.48301     0.51383     0.54966     0.59000    
 0.63414     0.68124     0.73023     0.77987     0.82878     0.87543     0.91828     0.95582     0.98664      1.0096    
  1.0237      1.0285      1.0237      1.0095     0.98659     0.95575     0.91820     0.87534     0.82868     0.77977    
 0.73013     0.68116     0.63408     0.58994     0.54961     0.51378     0.48297     0.45754     0.43771     0.42355    
 0.42792     0.42202     0.42202     0.42793     0.43977     0.45757     0.48130     0.51082     0.54584     0.58592    
 0.63042     0.67853     0.72925     0.78136     0.83349     0.88409     0.93155     0.97422      1.0105      1.0391    
  1.0589      1.0689      1.0689      1.0588      1.0391      1.0105     0.97414     0.93146     0.88400     0.83340    
 0.78128     0.72917     0.67846     0.63035     0.58586     0.54579     0.51077     0.48126     0.45754     0.43975    
 0.44590     0.43667     0.43360     0.43668     0.44591     0.46134     0.48300     0.51081     0.54458     0.58393    
 0.62832     0.67700     0.72900     0.78318     0.83816     0.89242     0.94428     0.99200      1.0339      1.0684    
  1.0940      1.1099      1.1152      1.1099      1.0940      1.0683      1.0338     0.99192     0.94419     0.89234    
 0.83808     0.78310     0.72893     0.67693     0.62826     0.58388     0.54453     0.51077     0.48297     0.46132    
 0.46891     0.45615     0.44980     0.44980     0.45616     0.46892     0.48814     0.51381     0.54583     0.58392    
 0.62764     0.67631     0.72906     0.78476     0.84211     0.89958     0.95547      1.0080      1.0554      1.0957    
  1.1276      1.1496      1.1608      1.1608      1.1496      1.1276      1.0957      1.0553      1.0079     0.95540    
 0.89950     0.84203     0.78469     0.72899     0.67625     0.62759     0.58388     0.54579     0.51378     0.48811    
 0.49675     0.48032     0.47052     0.46726     0.47053     0.48034     0.49677     0.51988     0.54965     0.58590    
 0.62830     0.67630     0.72910     0.78567     0.84474     0.90483     0.96425      1.0212      1.0736      1.1198    
  1.1579      1.1863      1.2038      1.2097      1.2038      1.1863      1.1578      1.1198      1.0736      1.0211    
 0.96416     0.90475     0.84467     0.78560     0.72904     0.67625     0.62826     0.58586     0.54961     0.51985    
 0.52908     0.50893     0.49557     0.48893     0.48894     0.49559     0.50894     0.52911     0.55614     0.58998    
 0.63040     0.67697     0.72904     0.78566     0.84566     0.90760     0.96984      1.0305      1.0876      1.1392    
  1.1833      1.2181      1.2422      1.2545      1.2545      1.2422      1.2181      1.1833      1.1392      1.0876    
  1.0304     0.96976     0.90753     0.84559     0.78560     0.72898     0.67693     0.63035     0.58993     0.55610    
 0.56544     0.54157     0.52466     0.51459     0.51125     0.51460     0.52468     0.54159     0.56547     0.59634    
 0.63412     0.67850     0.72898     0.78474     0.84472     0.90758     0.97174      1.0354      1.0964      1.1529    
  1.2026      1.2436      1.2743      1.2932      1.2996      1.2932      1.2742      1.2436      1.2025      1.1528    
  1.0964      1.0353     0.97168     0.90753     0.84466     0.78468     0.72893     0.67846     0.63407     0.59630    
 0.60518     0.57775     0.55736     0.54391     0.53723     0.53724     0.54392     0.55738     0.57777     0.60522    
 0.63975     0.68120     0.72921     0.78315     0.84208     0.90479     0.96980      1.0353      1.0994      1.1599    
  1.2146      1.2614      1.2983      1.3239      1.3370      1.3370      1.3239      1.2983      1.2613      1.2145    
  1.1598      1.0994      1.0353     0.96976     0.90475     0.84203     0.78310     0.72917     0.68116     0.63970    
 0.64755     0.61679     0.59313     0.57644     0.56653     0.56326     0.56655     0.57646     0.59315     0.61682    
 0.64759     0.68545     0.73018     0.78132     0.83813     0.89954     0.96421      1.0305      1.0964      1.1599    
  1.2186      1.2705      1.3133      1.3453      1.3650      1.3717      1.3651      1.3453      1.3133      1.2705    
  1.2186      1.1598      1.0964      1.0304     0.96417     0.89950     0.83808     0.78128     0.73014     0.68541    
 0.69160     0.65789     0.63127     0.61160     0.59868     0.59229     0.59230     0.59870     0.61163     0.63130    
 0.65794     0.69164     0.73236     0.77981     0.83344     0.89237     0.95543      1.0211      1.0876      1.1528    
  1.2146      1.2705      1.3184      1.3562      1.3824      1.3958      1.3958      1.3824      1.3562      1.3184    
  1.2705      1.2145      1.1528      1.0876      1.0211     0.95540     0.89233     0.83339     0.77978     0.73233    
 0.73621     0.70008     0.67094     0.64868     0.63308     0.62387     0.62084     0.62389     0.63311     0.64871    
 0.67099     0.70014     0.73625     0.77923     0.82871     0.88403     0.94421      1.0080      1.0736      1.1392    
  1.2026      1.2614      1.3133      1.3562      1.3883      1.4081      1.4148      1.4081      1.3883      1.3562    
  1.3133      1.2614      1.2025      1.1392      1.0736      1.0079     0.94419     0.88400     0.82868     0.77920    
 0.78013     0.74224     0.71115     0.68681     0.66898     0.65736     0.65164     0.65165     0.65738     0.66901    
 0.68685     0.71121     0.74230     0.78017     0.82467     0.87536     0.93148     0.99193      1.0553      1.1198    
  1.1833      1.2436      1.2983      1.3453      1.3824      1.4081      1.4213      1.4213      1.4081      1.3824    
  1.3453      1.2983      1.2436      1.1833      1.1198      1.0553     0.99193     0.93146     0.87533     0.82464    
 0.82200     0.78311     0.75077     0.72496     0.70548     0.69196     0.68404     0.68145     0.68406     0.69198    
 0.70551     0.72501     0.75083     0.78316     0.82204     0.86724     0.91822     0.97414      1.0338      1.0957    
  1.1578      1.2181      1.2742      1.3239      1.3651      1.3958      1.4148      1.4213      1.4148      1.3958    
  1.3650      1.3239      1.2743      1.2181      1.1578      1.0957      1.0338     0.97414     0.91819     0.86720    
 0.86043     0.82139     0.78857     0.76202     0.74153     0.72673     0.71720     0.71255     0.71257     0.71723    
 0.72677     0.74157     0.76208     0.78863     0.82143     0.86047     0.90545     0.95576      1.0105      1.0683    
  1.1275      1.1862      1.2422      1.2932      1.3370      1.3718      1.3958      1.4081      1.4081      1.3958    
  1.3717      1.3370      1.2932      1.2422      1.1863      1.1276      1.0683      1.0105     0.95575     0.90541    
 0.89407     0.85576     0.82331     0.79678     0.77601     0.76063     0.75014     0.74408     0.74212     0.74411    
 0.75018     0.76067     0.77607     0.79685     0.82336     0.85579     0.89410     0.93793     0.98659      1.0391    
  1.0940      1.1495      1.2038      1.2545      1.2996      1.3370      1.3651      1.3824      1.3883      1.3824    
  1.3651      1.3370      1.2996      1.2545      1.2038      1.1496      1.0940      1.0391     0.98659     0.93790    
 0.92168     0.88499     0.85375     0.82805     0.80777     0.79252     0.78179     0.77503     0.77179     0.77180    
 0.77506     0.78182     0.79257     0.80784     0.82812     0.85379     0.88502     0.92171     0.96346      1.0095    
  1.0588      1.1098      1.1608      1.2097      1.2545      1.2932      1.3239      1.3453      1.3562      1.3562    
  1.3453      1.3239      1.2932      1.2545      1.2097      1.1608      1.1099      1.0588      1.0095     0.96345    
 0.94222     0.90797     0.87875     0.85470     0.83565     0.82127     0.81102     0.80429     0.80052     0.79932    
 0.80053     0.80431     0.81105     0.82133     0.83573     0.85476     0.87880     0.90800     0.94224     0.98106    
  1.0237      1.0689      1.1152      1.1608      1.2038      1.2422      1.2742      1.2983      1.3133      1.3184    
  1.3133      1.2983      1.2742      1.2422      1.2038      1.1608      1.1152      1.0689      1.0237     0.98107    
 0.95489     0.92382     0.89737     0.87568     0.85861     0.84581     0.83675     0.83076     0.82722     0.82559    
 0.82560     0.82723     0.83078     0.83678     0.84587     0.85868     0.87574     0.89742     0.92385     0.95489    
 0.99004      1.0284      1.0689      1.1098      1.1495      1.1862      1.2181      1.2436      1.2614      1.2705    
  1.2705      1.2614      1.2436      1.2181      1.1863      1.1496      1.1099      1.0689      1.0285     0.99006    
 0.95917     0.93192     0.90885     0.89016     0.87573     0.86518     0.85796     0.85340     0.85081     0.84954    
 0.84918     0.84955     0.85082     0.85342     0.85799     0.86523     0.87578     0.89022     0.90890     0.93194    
 0.95916     0.99004      1.0237      1.0588      1.0940      1.1275      1.1578      1.1833      1.2026      1.2146    
  1.2186      1.2146      1.2026      1.1833      1.1579      1.1276      1.0940      1.0589      1.0237     0.99007    