   6   6   0   0
  0.2185851E+02  0.3190316E-09  0.3190316E-09  0.1487900E-08  0.5000000E-15
  1.000000000000000E-004
  CAR 
 unknown system                          
      8.37244091    -12.92948803  301      3.33542230      1.00000000
    -12.929  0.0000E+00  0.0000E+00
    -12.858  0.0000E+00  0.0000E+00
    -12.787  0.0000E+00  0.0000E+00
    -12.716  0.0000E+00  0.0000E+00
    -12.645  0.0000E+00  0.0000E+00
    -12.574  0.0000E+00  0.0000E+00
    -12.503  0.0000E+00  0.0000E+00
    -12.432  0.0000E+00  0.0000E+00
    -12.361  0.0000E+00  0.0000E+00
    -12.290  0.0000E+00  0.0000E+00
    -12.219  0.0000E+00  0.0000E+00
    -12.148  0.0000E+00  0.0000E+00
    -12.077  0.0000E+00  0.0000E+00
    -12.006  0.0000E+00  0.0000E+00
    -11.935  0.0000E+00  0.0000E+00
    -11.864  0.0000E+00  0.0000E+00
    -11.793  0.0000E+00  0.0000E+00
    -11.722  0.0000E+00  0.0000E+00
    -11.651  0.0000E+00  0.0000E+00
    -11.580  0.0000E+00  0.0000E+00
    -11.509  0.0000E+00  0.0000E+00
    -11.438  0.0000E+00  0.0000E+00
    -11.367  0.0000E+00  0.0000E+00
    -11.296  0.0000E+00  0.0000E+00
    -11.225  0.0000E+00  0.0000E+00
    -11.154  0.0000E+00  0.0000E+00
    -11.083  0.0000E+00  0.0000E+00
    -11.012  0.0000E+00  0.0000E+00
    -10.941  0.0000E+00  0.0000E+00
    -10.870  0.4068E+00  0.1024E-01
    -10.799  0.9874E+00  0.5974E-01
    -10.728  0.1568E+01  0.1505E+00
    -10.657  0.9997E+00  0.2350E+00
    -10.586  0.1065E+01  0.3083E+00
    -10.515  0.1131E+01  0.3863E+00
    -10.444  0.1197E+01  0.4690E+00
    -10.373  0.1263E+01  0.5563E+00
    -10.302  0.1320E+01  0.6483E+00
    -10.231  0.1332E+01  0.7425E+00
    -10.160  0.1344E+01  0.8375E+00
    -10.089  0.1385E+01  0.9341E+00
    -10.018  0.1440E+01  0.1034E+01
     -9.947  0.1495E+01  0.1139E+01
     -9.876  0.1550E+01  0.1247E+01
     -9.805  0.1605E+01  0.1359E+01
     -9.734  0.1660E+01  0.1475E+01
     -9.663  0.3622E+01  0.1641E+01
     -9.592  0.4153E+01  0.1961E+01
     -9.521  0.4645E+01  0.2273E+01
     -9.450  0.5153E+01  0.2620E+01
     -9.379  0.5596E+01  0.3004E+01
     -9.308  0.6044E+01  0.3415E+01
     -9.237  0.6609E+01  0.3865E+01
     -9.166  0.7205E+01  0.4354E+01
     -9.095  0.8463E+01  0.5153E+01
     -9.024  0.8368E+01  0.5749E+01
     -8.953  0.8723E+01  0.6356E+01
     -8.882  0.2587E+02  0.7092E+01
     -8.811  0.5848E+01  0.7671E+01
     -8.740  0.0000E+00  0.8000E+01
     -8.669  0.0000E+00  0.8000E+01
     -8.598  0.0000E+00  0.8000E+01
     -8.527  0.0000E+00  0.8000E+01
     -8.456  0.0000E+00  0.8000E+01
     -8.385  0.0000E+00  0.8000E+01
     -8.314  0.0000E+00  0.8000E+01
     -8.243  0.0000E+00  0.8000E+01
     -8.172  0.0000E+00  0.8000E+01
     -8.101  0.0000E+00  0.8000E+01
     -8.030  0.0000E+00  0.8000E+01
     -7.959  0.0000E+00  0.8000E+01
     -7.888  0.0000E+00  0.8000E+01
     -7.817  0.0000E+00  0.8000E+01
     -7.746  0.0000E+00  0.8000E+01
     -7.675  0.0000E+00  0.8000E+01
     -7.604  0.0000E+00  0.8000E+01
     -7.533  0.0000E+00  0.8000E+01
     -7.462  0.0000E+00  0.8000E+01
     -7.391  0.0000E+00  0.8000E+01
     -7.320  0.0000E+00  0.8000E+01
     -7.249  0.0000E+00  0.8000E+01
     -7.178  0.0000E+00  0.8000E+01
     -7.107  0.0000E+00  0.8000E+01
     -7.036  0.0000E+00  0.8000E+01
     -6.965  0.0000E+00  0.8000E+01
     -6.894  0.0000E+00  0.8000E+01
     -6.823  0.0000E+00  0.8000E+01
     -6.752  0.0000E+00  0.8000E+01
     -6.681  0.0000E+00  0.8000E+01
     -6.610  0.0000E+00  0.8000E+01
     -6.539  0.0000E+00  0.8000E+01
     -6.468  0.0000E+00  0.8000E+01
     -6.397  0.0000E+00  0.8000E+01
     -6.326  0.0000E+00  0.8000E+01
     -6.255  0.0000E+00  0.8000E+01
     -6.184  0.0000E+00  0.8000E+01
     -6.113  0.0000E+00  0.8000E+01
     -6.042  0.0000E+00  0.8000E+01
     -5.971  0.0000E+00  0.8000E+01
     -5.900  0.0000E+00  0.8000E+01
     -5.829  0.0000E+00  0.8000E+01
     -5.758  0.0000E+00  0.8000E+01
     -5.687  0.0000E+00  0.8000E+01
     -5.616  0.0000E+00  0.8000E+01
     -5.545  0.0000E+00  0.8000E+01
     -5.474  0.0000E+00  0.8000E+01
     -5.403  0.0000E+00  0.8000E+01
     -5.332  0.0000E+00  0.8000E+01
     -5.261  0.0000E+00  0.8000E+01
     -5.190  0.0000E+00  0.8000E+01
     -5.119  0.0000E+00  0.8000E+01
     -5.048  0.0000E+00  0.8000E+01
     -4.977  0.0000E+00  0.8000E+01
     -4.906  0.0000E+00  0.8000E+01
     -4.835  0.0000E+00  0.8000E+01
     -4.764  0.0000E+00  0.8000E+01
     -4.693  0.0000E+00  0.8000E+01
     -4.622  0.0000E+00  0.8000E+01
     -4.551  0.0000E+00  0.8000E+01
     -4.480  0.0000E+00  0.8000E+01
     -4.409  0.0000E+00  0.8000E+01
     -4.338  0.0000E+00  0.8000E+01
     -4.267  0.0000E+00  0.8000E+01
     -4.196  0.0000E+00  0.8000E+01
     -4.125  0.0000E+00  0.8000E+01
     -4.054  0.0000E+00  0.8000E+01
     -3.983  0.0000E+00  0.8000E+01
     -3.912  0.0000E+00  0.8000E+01
     -3.841  0.0000E+00  0.8000E+01
     -3.770  0.0000E+00  0.8000E+01
     -3.699  0.0000E+00  0.8000E+01
     -3.628  0.0000E+00  0.8000E+01
     -3.557  0.0000E+00  0.8000E+01
     -3.486  0.0000E+00  0.8000E+01
     -3.415  0.0000E+00  0.8000E+01
     -3.344  0.0000E+00  0.8000E+01
     -3.273  0.0000E+00  0.8000E+01
     -3.202  0.0000E+00  0.8000E+01
     -3.131  0.0000E+00  0.8000E+01
     -3.060  0.0000E+00  0.8000E+01
     -2.989  0.0000E+00  0.8000E+01
     -2.918  0.0000E+00  0.8000E+01
     -2.847  0.0000E+00  0.8000E+01
     -2.776  0.0000E+00  0.8000E+01
     -2.705  0.0000E+00  0.8000E+01
     -2.634  0.0000E+00  0.8000E+01
     -2.563  0.4689E+00  0.8009E+01
     -2.492  0.1370E+01  0.8074E+01
     -2.421  0.2442E+01  0.8208E+01
     -2.350  0.3704E+01  0.8425E+01
     -2.279  0.5271E+01  0.8752E+01
     -2.208  0.5699E+01  0.9140E+01
     -2.137  0.1232E+02  0.9569E+01
     -2.066  0.7138E+01  0.1016E+02
     -1.994  0.6025E+01  0.1063E+02
     -1.923  0.1195E+02  0.1115E+02
     -1.852  0.5577E+01  0.1180E+02
     -1.781  0.1063E+02  0.1207E+02
     -1.710  0.6659E+01  0.1276E+02
     -1.639  0.2982E+01  0.1314E+02
     -1.568  0.2599E+01  0.1333E+02
     -1.497  0.2371E+01  0.1351E+02
     -1.426  0.2144E+01  0.1367E+02
     -1.355  0.1916E+01  0.1381E+02
     -1.284  0.1697E+01  0.1394E+02
     -1.213  0.1673E+01  0.1406E+02
     -1.142  0.1681E+01  0.1418E+02
     -1.071  0.1688E+01  0.1430E+02
     -1.000  0.1696E+01  0.1442E+02
     -0.929  0.2680E+01  0.1455E+02
     -0.858  0.7106E+01  0.1488E+02
     -0.787  0.1222E+02  0.1558E+02
     -0.716  0.9892E+01  0.1644E+02
     -0.645  0.9756E+01  0.1714E+02
     -0.574  0.6942E+01  0.1774E+02
     -0.503  0.3751E+01  0.1812E+02
     -0.432  0.2522E+01  0.1832E+02
     -0.361  0.2298E+01  0.1849E+02
     -0.290  0.2137E+01  0.1865E+02
     -0.219  0.1977E+01  0.1880E+02
     -0.148  0.1817E+01  0.1893E+02
     -0.077  0.1913E+02  0.1962E+02
     -0.006  0.1044E+02  0.2094E+02
      0.065  0.6703E+01  0.2151E+02
      0.136  0.6758E+01  0.2194E+02
      0.207  0.4700E+01  0.2239E+02
      0.278  0.3708E+01  0.2267E+02
      0.349  0.3521E+01  0.2293E+02
      0.420  0.3335E+01  0.2317E+02
      0.491  0.4197E+01  0.2342E+02
      0.562  0.5266E+01  0.2377E+02
      0.633  0.5012E+01  0.2413E+02
      0.704  0.3589E+01  0.2444E+02
      0.775  0.1821E+01  0.2463E+02
      0.846  0.1774E+01  0.2476E+02
      0.917  0.1733E+01  0.2488E+02
      0.988  0.1700E+01  0.2500E+02
      1.059  0.1673E+01  0.2512E+02
      1.130  0.6385E+01  0.2541E+02
      1.201  0.1147E+02  0.2610E+02
      1.272  0.1690E+02  0.2734E+02
      1.343  0.9564E+01  0.2834E+02
      1.414  0.3788E+01  0.2876E+02
      1.485  0.3002E+01  0.2899E+02
      1.556  0.2918E+01  0.2920E+02
      1.627  0.2848E+01  0.2940E+02
      1.698  0.3159E+01  0.2962E+02
      1.769  0.4498E+01  0.2987E+02
      1.840  0.7865E+01  0.3031E+02
      1.911  0.7488E+01  0.3090E+02
      1.982  0.4786E+01  0.3128E+02
      2.053  0.3956E+01  0.3159E+02
      2.124  0.2391E+01  0.3182E+02
      2.195  0.1489E+01  0.3195E+02
      2.266  0.3915E+01  0.3213E+02
      2.337  0.8366E+01  0.3259E+02
      2.408  0.7481E+01  0.3315E+02
      2.479  0.6987E+01  0.3366E+02
      2.550  0.6393E+01  0.3414E+02
      2.621  0.5922E+01  0.3457E+02
      2.692  0.4073E+01  0.3490E+02
      2.763  0.3547E+01  0.3517E+02
      2.834  0.3022E+01  0.3540E+02
      2.905  0.2822E+01  0.3561E+02
      2.976  0.4348E+01  0.3582E+02
      3.047  0.9300E+00  0.3591E+02
      3.118  0.5270E+00  0.3597E+02
      3.189  0.1853E+00  0.3599E+02
      3.260  0.2266E-01  0.3600E+02
      3.331  0.0000E+00  0.3600E+02
      3.402  0.0000E+00  0.3600E+02
      3.473  0.0000E+00  0.3600E+02
      3.544  0.0000E+00  0.3600E+02
      3.615  0.0000E+00  0.3600E+02
      3.686  0.0000E+00  0.3600E+02
      3.757  0.0000E+00  0.3600E+02
      3.828  0.0000E+00  0.3600E+02
      3.899  0.0000E+00  0.3600E+02
      3.970  0.0000E+00  0.3600E+02
      4.041  0.0000E+00  0.3600E+02
      4.112  0.0000E+00  0.3600E+02
      4.183  0.0000E+00  0.3600E+02
      4.254  0.0000E+00  0.3600E+02
      4.325  0.0000E+00  0.3600E+02
      4.396  0.0000E+00  0.3600E+02
      4.467  0.0000E+00  0.3600E+02
      4.538  0.0000E+00  0.3600E+02
      4.609  0.0000E+00  0.3600E+02
      4.680  0.0000E+00  0.3600E+02
      4.751  0.0000E+00  0.3600E+02
      4.822  0.0000E+00  0.3600E+02
      4.893  0.0000E+00  0.3600E+02
      4.964  0.1376E+01  0.3611E+02
      5.035  0.3313E+01  0.3625E+02
      5.106  0.6963E+01  0.3662E+02
      5.177  0.1093E+02  0.3725E+02
      5.248  0.1389E+02  0.3815E+02
      5.319  0.6392E+01  0.3935E+02
      5.390  0.1853E+01  0.3953E+02
      5.461  0.4306E+01  0.3968E+02
      5.532  0.1509E+02  0.4029E+02
      5.603  0.1027E+02  0.4115E+02
      5.674  0.7738E+01  0.4174E+02
      5.745  0.7252E+01  0.4228E+02
      5.816  0.7828E+01  0.4286E+02
      5.887  0.3126E+01  0.4320E+02
      5.958  0.2501E+01  0.4340E+02
      6.029  0.2036E+01  0.4356E+02
      6.100  0.1730E+01  0.4369E+02
      6.171  0.1875E+01  0.4381E+02
      6.242  0.1082E+01  0.4392E+02
      6.313  0.5926E+00  0.4398E+02
      6.384  0.0000E+00  0.4400E+02
      6.455  0.0000E+00  0.4400E+02
      6.526  0.0000E+00  0.4400E+02
      6.597  0.0000E+00  0.4400E+02
      6.668  0.0000E+00  0.4400E+02
      6.739  0.0000E+00  0.4400E+02
      6.810  0.0000E+00  0.4400E+02
      6.881  0.0000E+00  0.4400E+02
      6.952  0.0000E+00  0.4400E+02
      7.023  0.0000E+00  0.4400E+02
      7.094  0.0000E+00  0.4400E+02
      7.165  0.0000E+00  0.4400E+02
      7.236  0.0000E+00  0.4400E+02
      7.307  0.0000E+00  0.4400E+02
      7.378  0.0000E+00  0.4400E+02
      7.449  0.0000E+00  0.4400E+02
      7.520  0.0000E+00  0.4400E+02
      7.591  0.0000E+00  0.4400E+02
      7.662  0.0000E+00  0.4400E+02
      7.733  0.0000E+00  0.4400E+02
      7.804  0.0000E+00  0.4400E+02
      7.875  0.0000E+00  0.4400E+02
      7.946  0.0000E+00  0.4400E+02
      8.017  0.0000E+00  0.4400E+02
      8.088  0.0000E+00  0.4400E+02
      8.159  0.0000E+00  0.4400E+02
      8.230  0.0000E+00  0.4400E+02
      8.301  0.0000E+00  0.4400E+02
      8.372  0.0000E+00  0.4400E+02
