       N       E                     dE             d eps       ncg     rms          rms(c)
DAV:   1     0.240130121527E+03    0.24013E+03   -0.17198E+04   880   0.159E+03
DAV:   2    -0.233100513629E+02   -0.26344E+03   -0.25600E+03  1172   0.297E+02
DAV:   3    -0.460733495644E+02   -0.22763E+02   -0.22647E+02  1210   0.834E+01
DAV:   4    -0.468015183575E+02   -0.72817E+00   -0.72716E+00  1186   0.158E+01
DAV:   5    -0.468240128287E+02   -0.22494E-01   -0.22489E-01  1256   0.265E+00    0.973E+00
RMM:   6    -0.444459767708E+02    0.23780E+01   -0.24553E+01   980   0.198E+01    0.339E+00
RMM:   7    -0.436998935725E+02    0.74608E+00   -0.20120E+00   957   0.570E+00    0.179E+00
RMM:   8    -0.436352913565E+02    0.64602E-01   -0.88327E-01  1000   0.335E+00    0.827E-01
RMM:   9    -0.436234232398E+02    0.11868E-01   -0.26815E-01  1035   0.220E+00    0.533E-01
RMM:  10    -0.436096319986E+02    0.13791E-01   -0.56655E-02  1041   0.105E+00    0.749E-02
RMM:  11    -0.436096796274E+02   -0.47629E-04   -0.27608E-03  1112   0.218E-01    0.294E-02
RMM:  12    -0.436098164380E+02   -0.13681E-03   -0.46724E-04  1115   0.109E-01    0.175E-02
RMM:  13    -0.436098274130E+02   -0.10975E-04   -0.26669E-04  1145   0.669E-02    0.180E-02
RMM:  14    -0.436098149783E+02    0.12435E-04   -0.61145E-05   855   0.359E-02    0.257E-03
RMM:  15    -0.436098153079E+02   -0.32953E-06   -0.88826E-06   671   0.141E-02
   1 F= -.44941102E+02 E0= -.44941102E+02  d E =0.000000E+00
