perl: warning: Setting locale failed.
perl: warning: Please check that your locale settings:
	LANGUAGE = (unset),
	LC_ALL = (unset),
	LC_CTYPE = "UTF-8",
	LANG = "en_US.iso885915"
    are supported and installed on your system.
perl: warning: Falling back to the standard locale ("C").
Starting job 28526452 ("jobname") on c15-30 at Fri Nov 8 00:00:54 CET 2019
 running on    4 total cores
 distrk:  each k-point on    4 cores,    1 groups
 distr:  one band on    2 cores,    2 groups
 using from now: INCAR     
 vasp.5.4.4.18Apr17-6-g9f103f2a35 (build Jun 30 2017 11:15:00) complex          
  
 POSCAR found type information on POSCAR  Mo S 
 POSCAR found :  2 types and       6 ions
 scaLAPACK will be used
 LDA part: xc-table for Pade appr. of Perdew
 POSCAR, INCAR and KPOINTS ok, starting setup
 FFT: planning ...
 WAVECAR not read
 WARNING: random wavefunctions but no delay for mixing, default for NELMDL
 entering main loop
       N       E                     dE             d eps       ncg     rms          rms(c)
DAV:   1     0.240130121527E+03    0.24013E+03   -0.17198E+04   880   0.159E+03
DAV:   2    -0.233100513629E+02   -0.26344E+03   -0.25600E+03  1172   0.297E+02
DAV:   3    -0.460733495644E+02   -0.22763E+02   -0.22647E+02  1210   0.834E+01
DAV:   4    -0.468015183575E+02   -0.72817E+00   -0.72716E+00  1186   0.158E+01
DAV:   5    -0.468240128287E+02   -0.22494E-01   -0.22489E-01  1256   0.265E+00    0.973E+00
RMM:   6    -0.444459767708E+02    0.23780E+01   -0.24553E+01   980   0.198E+01    0.339E+00
RMM:   7    -0.436998935725E+02    0.74608E+00   -0.20120E+00   957   0.570E+00    0.179E+00
RMM:   8    -0.436352913565E+02    0.64602E-01   -0.88327E-01  1000   0.335E+00    0.827E-01
RMM:   9    -0.436234232398E+02    0.11868E-01   -0.26815E-01  1035   0.220E+00    0.533E-01
RMM:  10    -0.436096319986E+02    0.13791E-01   -0.56655E-02  1041   0.105E+00    0.749E-02
RMM:  11    -0.436096796274E+02   -0.47629E-04   -0.27608E-03  1112   0.218E-01    0.294E-02
RMM:  12    -0.436098164380E+02   -0.13681E-03   -0.46724E-04  1115   0.109E-01    0.175E-02
RMM:  13    -0.436098274130E+02   -0.10975E-04   -0.26669E-04  1145   0.669E-02    0.180E-02
RMM:  14    -0.436098149783E+02    0.12435E-04   -0.61145E-05   855   0.359E-02    0.257E-03
RMM:  15    -0.436098153079E+02   -0.32953E-06   -0.88826E-06   671   0.141E-02
 Error reading item 'IVDW' from file INCAR
   1 F= -.43609815E+02 E0= -.43609815E+02  d E =0.000000E+00

Currently Loaded Modulefiles:
  1) Anaconda3/5.1.0       3) vesta/3.3.8           5) intel/2016.1
  2) gnuplot/5.0.4         4) imagemagick/6.7.9-0   6) vasp/5.4.1.Feb16

Job script resource usage:
       JobID  MaxVMSize     MaxRSS 
------------ ---------- ---------- 
28526452.ba+    216888K      2352K 

Job step resource usage:
       JobID    JobName  AllocCPUS  MaxVMSize     MaxRSS    Elapsed ExitCode 
------------ ---------- ---------- ---------- ---------- ---------- -------- 
28526452        jobname          4                         00:00:19      0:0 
28526452.0    pmi_proxy          1    279832K       518K   00:00:17      0:0 

Job 28526452 ("jobname") completed on c15-30 at Fri Nov 8 00:01:11 CET 2019
