<?xml version="1.0" encoding="ISO-8859-1"?>
<modeling>
 <generator>
  <i name="program" type="string">vasp </i>
  <i name="version" type="string">5.4.4.18Apr17-6-g9f103f2a35  </i>
  <i name="subversion" type="string">(build Jun 30 2017 11:15:00) complex            parallel </i>
  <i name="platform" type="string">STALLO_VASP_5.4.4 </i>
  <i name="date" type="string">2019 11 08 </i>
  <i name="time" type="string">11:37:20 </i>
 </generator>
 <incar>
  <i type="string" name="PREC">normal    ! low/normal/accurate</i>
  <i type="string" name="ALGO"> Fast      ! Algorithm for electronic re</i>
  <i type="int" name="ISPIN">     1</i>
  <i type="int" name="NELMIN">     4</i>
  <i name="EDIFF">      0.00001000</i>
  <i type="int" name="NSW">     0</i>
  <i name="ENCUT">    600.00000000</i>
  <i type="logical" name="LREAL"> F  </i>
  <i type="int" name="ISMEAR">    -5</i>
  <i name="SIGMA">      0.20000000</i>
  <i type="logical" name="LWAVE"> F  </i>
  <v type="int" name="KPOINT_BSE">    -1     0     0     0</v>
 </incar>
 <structure name="primitive_cell" >
  <crystal>
   <varray name="basis" >
    <v>       3.19031573       0.00000000       0.00000000 </v>
    <v>      -1.59515786       2.76289447       0.00000000 </v>
    <v>       0.00000000       0.00000000      14.87900430 </v>
   </varray>
   <i name="volume">    131.15106795 </i>
   <varray name="rec_basis" >
    <v>       0.31344860       0.18096963       0.00000000 </v>
    <v>       0.00000000       0.36193927       0.00000000 </v>
    <v>       0.00000000       0.00000000       0.06720880 </v>
   </varray>
  </crystal>
  <varray name="positions" >
   <v>       0.33333300      -0.33333300       0.25000000 </v>
   <v>      -0.33333400       0.33333300       0.35517400 </v>
   <v>      -0.33333300       0.33333300       0.14482600 </v>
   <v>       0.33333300      -0.33333300      -0.14482600 </v>
   <v>       0.33333400      -0.33333300      -0.35517400 </v>
   <v>      -0.33333300       0.33333300      -0.25000000 </v>
  </varray>
 </structure>
 <varray name="primitive_index" >
  <v type="int" >        1 </v>
  <v type="int" >        5 </v>
  <v type="int" >        4 </v>
  <v type="int" >        3 </v>
  <v type="int" >        6 </v>
  <v type="int" >        2 </v>
 </varray>
 <kpoints>
  <generation param="Gamma">
   <v type="int" name="divisions">       8        8        2 </v>
   <v name="usershift">      0.00000000       0.00000000       0.00000000 </v>
   <v name="genvec1">      0.12500000       0.00000000       0.00000000 </v>
   <v name="genvec2">      0.00000000       0.12500000       0.00000000 </v>
   <v name="genvec3">      0.00000000       0.00000000       0.50000000 </v>
   <v name="shift">      0.00000000       0.00000000       0.00000000 </v>
  </generation>
  <varray name="kpointlist" >
   <v>       0.00000000       0.00000000       0.00000000 </v>
   <v>       0.12500000      -0.00000000       0.00000000 </v>
   <v>       0.25000000      -0.00000000       0.00000000 </v>
   <v>       0.37500000      -0.00000000       0.00000000 </v>
   <v>       0.50000000      -0.00000000       0.00000000 </v>
   <v>       0.12500000       0.12500000       0.00000000 </v>
   <v>       0.25000000       0.12500000       0.00000000 </v>
   <v>       0.37500000       0.12500000       0.00000000 </v>
   <v>       0.25000000       0.25000000       0.00000000 </v>
   <v>       0.37500000       0.25000000       0.00000000 </v>
   <v>       0.00000000       0.00000000       0.50000000 </v>
   <v>       0.12500000      -0.00000000       0.50000000 </v>
   <v>       0.25000000      -0.00000000       0.50000000 </v>
   <v>       0.37500000      -0.00000000       0.50000000 </v>
   <v>       0.50000000      -0.00000000       0.50000000 </v>
   <v>       0.12500000       0.12500000       0.50000000 </v>
   <v>       0.25000000       0.12500000       0.50000000 </v>
   <v>       0.37500000       0.12500000       0.50000000 </v>
   <v>       0.25000000       0.25000000       0.50000000 </v>
   <v>       0.37500000       0.25000000       0.50000000 </v>
  </varray>
  <varray name="weights" >
   <v>       0.00781250 </v>
   <v>       0.04687500 </v>
   <v>       0.04687500 </v>
   <v>       0.04687500 </v>
   <v>       0.02343750 </v>
   <v>       0.04687500 </v>
   <v>       0.09375000 </v>
   <v>       0.09375000 </v>
   <v>       0.04687500 </v>
   <v>       0.04687500 </v>
   <v>       0.00781250 </v>
   <v>       0.04687500 </v>
   <v>       0.04687500 </v>
   <v>       0.04687500 </v>
   <v>       0.02343750 </v>
   <v>       0.04687500 </v>
   <v>       0.09375000 </v>
   <v>       0.09375000 </v>
   <v>       0.04687500 </v>
   <v>       0.04687500 </v>
  </varray>
  <varray name="tetrahedronlist"  type="int" >
   <v type="int" >        8        2        2        6       12 </v>
   <v type="int" >        8        1        2        2       12 </v>
   <v type="int" >        4        1        2       11       12 </v>
   <v type="int" >        4        2        6       12       16 </v>
   <v type="int" >        8        2       12       12       16 </v>
   <v type="int" >        8        2       11       12       12 </v>
   <v type="int" >        8        3        6        7       16 </v>
   <v type="int" >        8        2        3        6       16 </v>
   <v type="int" >        4        2        3       12       16 </v>
   <v type="int" >        4        3        7       16       17 </v>
   <v type="int" >        8        3       13       16       17 </v>
   <v type="int" >        8        3       12       13       16 </v>
   <v type="int" >        8        4        7        8       17 </v>
   <v type="int" >        8        3        4        7       17 </v>
   <v type="int" >        4        3        4       13       17 </v>
   <v type="int" >        4        4        8       17       18 </v>
   <v type="int" >        8        4       14       17       18 </v>
   <v type="int" >        8        4       13       14       17 </v>
   <v type="int" >        8        5        8        8       18 </v>
   <v type="int" >        8        4        5        8       18 </v>
   <v type="int" >        4        4        5       14       18 </v>
   <v type="int" >        4        5        8       18       18 </v>
   <v type="int" >        4        5       15       18       18 </v>
   <v type="int" >        8        5       14       15       18 </v>
   <v type="int" >        8        4        7        8       18 </v>
   <v type="int" >        4        4        5       15       18 </v>
   <v type="int" >        4        4        7       17       18 </v>
   <v type="int" >        8        4       14       15       18 </v>
   <v type="int" >        8        3        6        7       17 </v>
   <v type="int" >        4        3        4       14       17 </v>
   <v type="int" >        4        3        6       16       17 </v>
   <v type="int" >        8        3       13       14       17 </v>
   <v type="int" >        4        2        2        6       16 </v>
   <v type="int" >        4        2        3       13       16 </v>
   <v type="int" >        4        2        2       12       16 </v>
   <v type="int" >        8        2       12       13       16 </v>
   <v type="int" >        4        1        2       12       12 </v>
   <v type="int" >        4        1       11       12       12 </v>
   <v type="int" >        8        3        6        7       13 </v>
   <v type="int" >        8        2        3        6       13 </v>
   <v type="int" >        4        2        6       12       13 </v>
   <v type="int" >        4        6        7       13       17 </v>
   <v type="int" >        8        6       13       16       17 </v>
   <v type="int" >        8        6       12       13       16 </v>
   <v type="int" >        8        7        7        9       17 </v>
   <v type="int" >        8        6        7        7       17 </v>
   <v type="int" >        4        6        7       16       17 </v>
   <v type="int" >        4        7        9       17       19 </v>
   <v type="int" >        8        7       17       17       19 </v>
   <v type="int" >        8        7       16       17       17 </v>
   <v type="int" >        8        8        9       10       19 </v>
   <v type="int" >        8        7        8        9       19 </v>
   <v type="int" >        4        7        8       17       19 </v>
   <v type="int" >        4        8       10       19       20 </v>
   <v type="int" >        8        8       18       19       20 </v>
   <v type="int" >        8        8       17       18       19 </v>
   <v type="int" >        8        8        9       10       20 </v>
   <v type="int" >        4        8        8       10       20 </v>
   <v type="int" >        4        8        8       18       20 </v>
   <v type="int" >        4        8        9       19       20 </v>
   <v type="int" >        8        8       18       18       20 </v>
   <v type="int" >        4        7        7        9       19 </v>
   <v type="int" >        4        7        8       18       19 </v>
   <v type="int" >        4        7        7       17       19 </v>
   <v type="int" >        8        7       17       18       19 </v>
   <v type="int" >        4        6        7       17       17 </v>
   <v type="int" >        4        3        6       13       17 </v>
   <v type="int" >        4        6       16       17       17 </v>
   <v type="int" >        4        2        6       13       16 </v>
   <v type="int" >        8        4        7        8       14 </v>
   <v type="int" >        8        3        4        7       14 </v>
   <v type="int" >        4        3        7       13       14 </v>
   <v type="int" >        4        7        8       14       18 </v>
   <v type="int" >        8        7       14       17       18 </v>
   <v type="int" >        8        7       13       14       17 </v>
   <v type="int" >        8        8        9       10       18 </v>
   <v type="int" >        8        7        8        9       18 </v>
   <v type="int" >        4        7        9       17       18 </v>
   <v type="int" >        4        9       10       18       20 </v>
   <v type="int" >        8        9       18       19       20 </v>
   <v type="int" >        8        9       17       18       19 </v>
   <v type="int" >        4       10       10       10       20 </v>
   <v type="int" >        8        9       10       10       20 </v>
   <v type="int" >        4        9       10       19       20 </v>
   <v type="int" >        4       10       10       20       20 </v>
   <v type="int" >        4       10       20       20       20 </v>
   <v type="int" >        8       10       19       20       20 </v>
   <v type="int" >        4        9       10       20       20 </v>
   <v type="int" >        4        8        9       18       20 </v>
   <v type="int" >        4        9       19       20       20 </v>
   <v type="int" >        4        7        9       18       19 </v>
   <v type="int" >        4        4        7       14       18 </v>
   <v type="int" >        4        3        7       14       17 </v>
   <v type="int" >        4        5        8        8       15 </v>
   <v type="int" >        8        4        5        8       15 </v>
   <v type="int" >        4        4        8       14       15 </v>
   <v type="int" >        4        8        8       15       18 </v>
   <v type="int" >        8        8       15       18       18 </v>
   <v type="int" >        8        8       14       15       18 </v>
   <v type="int" >        8        8        8       10       18 </v>
   <v type="int" >        4        8       10       18       18 </v>
   <v type="int" >        4        9       10       18       19 </v>
   <v type="int" >        8       10       18       19       20 </v>
   <v type="int" >        4       10       18       18       20 </v>
   <v type="int" >        4        9       10       10       19 </v>
   <v type="int" >        4       10       10       19       20 </v>
   <v type="int" >        4        8       10       18       19 </v>
   <v type="int" >        4        8       10       18       20 </v>
   <v type="int" >        4        5        8       15       18 </v>
   <v type="int" >        4        4        8       15       18 </v>
   <v type="int" >        8        4        5        8       14 </v>
   <v type="int" >        4        5        8       14       15 </v>
   <v type="int" >        4        7        8       14       17 </v>
   <v type="int" >        8        8       14       17       18 </v>
   <v type="int" >        8        7        8        9       17 </v>
   <v type="int" >        4        8        9       17       18 </v>
   <v type="int" >        4        7        9       17       17 </v>
   <v type="int" >        4        9       17       17       19 </v>
   <v type="int" >        4        8        9       17       19 </v>
   <v type="int" >        4        4        8       14       17 </v>
   <v type="int" >        4        5        8       14       18 </v>
   <v type="int" >        8        3        4        7       13 </v>
   <v type="int" >        4        4        7       13       14 </v>
   <v type="int" >        4        6        7       13       16 </v>
   <v type="int" >        8        7       13       16       17 </v>
   <v type="int" >        4        6        7        7       16 </v>
   <v type="int" >        4        7        7       16       17 </v>
   <v type="int" >        4        3        7       13       16 </v>
   <v type="int" >        4        4        7       13       17 </v>
   <v type="int" >        8        2        3        6       12 </v>
   <v type="int" >        4        3        6       12       13 </v>
   <v type="int" >        4        2        6       12       12 </v>
   <v type="int" >        4        6       12       12       16 </v>
   <v type="int" >        4        3        6       12       16 </v>
   <v type="int" >        4        1        2        2       11 </v>
   <v type="int" >        4        2        2       11       12 </v>
  </varray>
  <i name="volumeweight">      0.00130208 </i>
 </kpoints>
 <parameters>
  <separator name="general" >
   <i type="string" name="SYSTEM">unknown system</i>
   <i type="logical" name="LCOMPAT"> F  </i>
  </separator>
  <separator name="electronic" >
   <i type="string" name="PREC">normal</i>
   <i name="ENMAX">    600.00000000</i>
   <i name="ENAUG">    345.27800000</i>
   <i name="EDIFF">      0.00001000</i>
   <i type="int" name="IALGO">    68</i>
   <i type="int" name="IWAVPR">    10</i>
   <i type="int" name="NBANDS">    22</i>
   <i name="NELECT">     36.00000000</i>
   <i type="int" name="TURBO">     0</i>
   <i type="int" name="IRESTART">     0</i>
   <i type="int" name="NREBOOT">     0</i>
   <i type="int" name="NMIN">     0</i>
   <i name="EREF">      0.00000000</i>
   <separator name="electronic smearing" >
    <i type="int" name="ISMEAR">    -5</i>
    <i name="SIGMA">      0.20000000</i>
    <i name="KSPACING">      0.50000000</i>
    <i type="logical" name="KGAMMA"> T  </i>
   </separator>
   <separator name="electronic projectors" >
    <i type="logical" name="LREAL"> F  </i>
    <v name="ROPT">      0.00000000      0.00000000</v>
    <i type="int" name="LMAXPAW">  -100</i>
    <i type="int" name="LMAXMIX">     2</i>
    <i type="logical" name="NLSPLINE"> F  </i>
   </separator>
   <separator name="electronic startup" >
    <i type="int" name="ISTART">     0</i>
    <i type="int" name="ICHARG">     2</i>
    <i type="int" name="INIWAV">     1</i>
   </separator>
   <separator name="electronic spin" >
    <i type="int" name="ISPIN">     1</i>
    <i type="logical" name="LNONCOLLINEAR"> F  </i>
    <v name="MAGMOM">      1.00000000      1.00000000      1.00000000      1.00000000      1.00000000      1.00000000</v>
    <i name="NUPDOWN">     -1.00000000</i>
    <i type="logical" name="LSORBIT"> F  </i>
    <v name="SAXIS">      0.00000000      0.00000000      1.00000000</v>
    <i type="logical" name="LSPIRAL"> F  </i>
    <v name="QSPIRAL">      0.00000000      0.00000000      0.00000000</v>
    <i type="logical" name="LZEROZ"> F  </i>
   </separator>
   <separator name="electronic exchange-correlation" >
    <i type="logical" name="LASPH"> F  </i>
    <i type="logical" name="LMETAGGA"> F  </i>
   </separator>
   <separator name="electronic convergence" >
    <i type="int" name="NELM">    60</i>
    <i type="int" name="NELMDL">     0</i>
    <i type="int" name="NELMIN">     4</i>
    <i name="ENINI">    600.00000000</i>
    <separator name="electronic convergence detail" >
     <i type="logical" name="LDIAG"> T  </i>
     <i type="logical" name="LSUBROT"> F  </i>
     <i name="WEIMIN">      0.00000000</i>
     <i name="EBREAK">      0.00000011</i>
     <i name="DEPER">      0.30000000</i>
     <i type="int" name="NRMM">     4</i>
     <i name="TIME">      0.40000000</i>
    </separator>
   </separator>
   <separator name="electronic mixer" >
    <i name="AMIX">      0.40000000</i>
    <i name="BMIX">      1.00000000</i>
    <i name="AMIN">      0.10000000</i>
    <i name="AMIX_MAG">      1.60000000</i>
    <i name="BMIX_MAG">      1.00000000</i>
    <separator name="electronic mixer details" >
     <i type="int" name="IMIX">     4</i>
     <i type="logical" name="MIXFIRST"> F  </i>
     <i type="int" name="MAXMIX">   -45</i>
     <i name="WC">    100.00000000</i>
     <i type="int" name="INIMIX">     1</i>
     <i type="int" name="MIXPRE">     1</i>
     <i type="int" name="MREMOVE">     5</i>
    </separator>
   </separator>
   <separator name="electronic dipolcorrection" >
    <i type="logical" name="LDIPOL"> F  </i>
    <i type="logical" name="LMONO"> F  </i>
    <i type="int" name="IDIPOL">     0</i>
    <i name="EPSILON">      1.00000000</i>
    <v name="DIPOL">   -100.00000000   -100.00000000   -100.00000000</v>
    <i name="EFIELD">      0.00000000</i>
   </separator>
  </separator>
  <separator name="grids" >
   <i type="int" name="NGX">    20</i>
   <i type="int" name="NGY">    20</i>
   <i type="int" name="NGZ">    90</i>
   <i type="int" name="NGXF">    40</i>
   <i type="int" name="NGYF">    40</i>
   <i type="int" name="NGZF">   180</i>
   <i type="logical" name="ADDGRID"> F  </i>
  </separator>
  <separator name="ionic" >
   <i type="int" name="NSW">     0</i>
   <i type="int" name="IBRION">    -1</i>
   <i type="int" name="MDALGO">     0</i>
   <i type="int" name="ISIF">     2</i>
   <i name="PSTRESS">      0.00000000</i>
   <i name="EDIFFG">      0.00010000</i>
   <i type="int" name="NFREE">     0</i>
   <i name="POTIM">      0.50000000</i>
   <i name="SMASS">     -3.00000000</i>
   <i name="SCALEE">      1.00000000</i>
  </separator>
  <separator name="ionic md" >
   <i name="TEBEG">      0.00010000</i>
   <i name="TEEND">      0.00010000</i>
   <i type="int" name="NBLOCK">     1</i>
   <i type="int" name="KBLOCK">     1</i>
   <i type="int" name="NPACO">   256</i>
   <i name="APACO">     16.00000000</i>
  </separator>
  <separator name="symmetry" >
   <i type="int" name="ISYM">     2</i>
   <i name="SYMPREC">      0.00001000</i>
  </separator>
  <separator name="dos" >
   <i type="int" name="LORBIT">     0</i>
   <v name="RWIGS">     -1.00000000     -1.00000000</v>
   <i type="int" name="NEDOS">   301</i>
   <i name="EMIN">     10.00000000</i>
   <i name="EMAX">    -10.00000000</i>
   <i name="EFERMI">      0.00000000</i>
  </separator>
  <separator name="writing" >
   <i type="int" name="NWRITE">     2</i>
   <i type="logical" name="LWAVE"> F  </i>
   <i type="logical" name="LDOWNSAMPLE"> F  </i>
   <i type="logical" name="LCHARG"> T  </i>
   <i type="logical" name="LPARD"> F  </i>
   <i type="logical" name="LVTOT"> F  </i>
   <i type="logical" name="LVHAR"> F  </i>
   <i type="logical" name="LELF"> F  </i>
   <i type="logical" name="LOPTICS"> F  </i>
   <v name="STM">      0.00000000      0.00000000      0.00000000      0.00000000      0.00000000      0.00000000      0.00000000</v>
  </separator>
  <separator name="performance" >
   <i type="int" name="NPAR">     2</i>
   <i type="int" name="NSIM">     4</i>
   <i type="int" name="NBLK">    -1</i>
   <i type="logical" name="LPLANE"> T  </i>
   <i type="logical" name="LSCALAPACK"> T  </i>
   <i type="logical" name="LSCAAWARE"> F  </i>
   <i type="logical" name="LSCALU"> F  </i>
   <i type="logical" name="LASYNC"> F  </i>
   <i type="logical" name="LORBITALREAL"> F  </i>
  </separator>
  <separator name="miscellaneous" >
   <i type="int" name="IDIOT">     3</i>
   <i type="int" name="ISPECIAL">     0</i>
   <i type="logical" name="LMUSIC"> F  </i>
   <v name="POMASS">     95.94000000     32.06600000</v>
   <v name="DARWINR">      0.00000000      0.00000000</v>
   <v name="DARWINV">      1.00000000      1.00000000</v>
   <i type="logical" name="LCORR"> T  </i>
  </separator>
  <i type="logical" name="GGA_COMPAT"> T  </i>
  <i type="logical" name="LBERRY"> F  </i>
  <i type="int" name="ICORELEVEL">     0</i>
  <i type="logical" name="LDAU"> F  </i>
  <i type="int" name="I_CONSTRAINED_M">     0</i>
  <separator name="electronic exchange-correlation" >
   <i type="string" name="GGA">--</i>
   <i type="int" name="VOSKOWN">     0</i>
   <i type="logical" name="LHFCALC"> F  </i>
   <i type="string" name="PRECFOCK"></i>
   <i type="logical" name="LSYMGRAD"> F  </i>
   <i type="logical" name="LHFONE"> F  </i>
   <i type="logical" name="LRHFCALC"> F  </i>
   <i type="logical" name="LTHOMAS"> F  </i>
   <i type="logical" name="LMODELHF"> F  </i>
   <i name="ENCUT4O">     -1.00000000</i>
   <i type="int" name="EXXOEP">     0</i>
   <i type="int" name="FOURORBIT">     0</i>
   <i name="AEXX">      0.00000000</i>
   <i name="HFALPHA">      0.00000000</i>
   <i name="MCALPHA">      0.00000000</i>
   <i name="ALDAX">      1.00000000</i>
   <i name="AGGAX">      1.00000000</i>
   <i name="ALDAC">      1.00000000</i>
   <i name="AGGAC">      1.00000000</i>
   <i type="int" name="NKREDX">     1</i>
   <i type="int" name="NKREDY">     1</i>
   <i type="int" name="NKREDZ">     1</i>
   <i type="logical" name="SHIFTRED"> F  </i>
   <i type="logical" name="ODDONLY"> F  </i>
   <i type="logical" name="EVENONLY"> F  </i>
   <i type="int" name="LMAXFOCK">     0</i>
   <i type="int" name="NMAXFOCKAE">     0</i>
   <i type="logical" name="LFOCKAEDFT"> F  </i>
   <i name="HFSCREEN">      0.00000000</i>
   <i name="HFSCREENC">      0.00000000</i>
   <i type="int" name="NBANDSGWLOW">     0</i>
  </separator>
  <separator name="vdW DFT" >
   <i type="logical" name="LUSE_VDW"> F  </i>
   <i name="Zab_VDW">     -0.84910000</i>
   <i name="PARAM1">      0.12340000</i>
   <i name="PARAM2">      1.00000000</i>
   <i name="PARAM3">      0.00000000</i>
  </separator>
  <separator name="model GW" >
   <i type="int" name="MODEL_GW">     0</i>
   <i name="MODEL_EPS0">     13.11510680</i>
   <i name="MODEL_ALPHA">      1.00000000</i>
  </separator>
  <separator name="linear response parameters" >
   <i type="logical" name="LEPSILON"> F  </i>
   <i type="logical" name="LRPA"> F  </i>
   <i type="logical" name="LNABLA"> F  </i>
   <i type="logical" name="LVEL"> F  </i>
   <i type="int" name="KINTER">     0</i>
   <i name="CSHIFT">      0.10000000</i>
   <i name="OMEGAMAX">     -1.00000000</i>
   <i name="DEG_THRESHOLD">      0.00200000</i>
   <i name="RTIME">     -0.10000000</i>
   <i name="WPLASMAI">      0.00000000</i>
   <v name="DFIELD">      0.00000000      0.00000000      0.00000000</v>
   <v name="WPLASMA">      0.00000000      0.00000000      0.00000000      0.00000000      0.00000000      0.00000000      0.00000000      0.00000000      0.00000000</v>
  </separator>
  <separator name="orbital magnetization" >
   <i type="logical" name="NUCIND"> F  </i>
   <v name="MAGPOS">      0.00000000      0.00000000      0.00000000</v>
   <i type="logical" name="LNICSALL"> T  </i>
   <i type="logical" name="ORBITALMAG"> F  </i>
   <i type="logical" name="LMAGBLOCH"> F  </i>
   <i type="logical" name="LCHIMAG"> F  </i>
   <i type="logical" name="LGAUGE"> T  </i>
   <i type="int" name="MAGATOM">     0</i>
   <v name="MAGDIPOL">      0.00000000      0.00000000      0.00000000</v>
   <v name="AVECCONST">      0.00000000      0.00000000      0.00000000</v>
  </separator>
  <separator name="response functions" >
   <i type="logical" name="LADDER"> F  </i>
   <i type="logical" name="LRPAFORCE"> F  </i>
   <i type="logical" name="LFXC"> F  </i>
   <i type="logical" name="LHARTREE"> T  </i>
   <i type="int" name="IBSE">     0</i>
   <v type="int" name="KPOINT">    -1     0     0     0</v>
   <i type="logical" name="LTCTE"> F  </i>
   <i type="logical" name="LTETE"> F  </i>
   <i type="logical" name="LTRIPLET"> F  </i>
   <i type="logical" name="LFXCEPS"> F  </i>
   <i type="logical" name="LFXHEG"> F  </i>
   <i type="int" name="NATURALO">     2</i>
   <i type="logical" name="L2ORDER"> F  </i>
   <i type="logical" name="LMP2LT"> F  </i>
   <i type="logical" name="LUSEW"> F  </i>
   <i name="ENCUTGW">     -2.00000000</i>
   <i name="ENCUTGWSOFT">     -2.00000000</i>
   <i name="ENCUTLF">     -1.00000000</i>
   <i type="int" name="LMAXMP2">    -1</i>
   <i name="SCISSOR">      0.00000000</i>
   <i type="int" name="NOMEGA">     0</i>
   <i type="int" name="NOMEGAR">     0</i>
   <i type="int" name="NBANDSGW">    -1</i>
   <i type="int" name="NBANDSO">    -1</i>
   <i type="int" name="NBANDSV">    -1</i>
   <i type="int" name="NELM">     1</i>
   <i type="int" name="NELMHF">     1</i>
   <i type="int" name="DIM">     3</i>
   <i type="int" name="ANTIRES">     0</i>
   <i name="OMEGAMAX">    -30.00000000</i>
   <i name="OMEGAMIN">    -30.00000000</i>
   <i name="OMEGATL">   -200.00000000</i>
   <i type="int" name="OMEGAGRID">   140</i>
   <i name="CSHIFT">     -0.10000000</i>
   <i type="logical" name="SELFENERGY"> F  </i>
   <i type="logical" name="LSPECTRAL"> F  </i>
   <i type="logical" name="LSPECTRALGW"> F  </i>
   <i type="logical" name="LSINGLES"> F  </i>
   <i type="logical" name="LFERMIGW"> F  </i>
   <i type="logical" name="ODDONLYGW"> F  </i>
   <i type="logical" name="EVENONLYGW"> F  </i>
   <i type="int" name="NKREDLFX">     1</i>
   <i type="int" name="NKREDLFY">     1</i>
   <i type="int" name="NKREDLFZ">     1</i>
   <i type="int" name="MAXMEM">  2800</i>
   <i type="int" name="TELESCOPE">     0</i>
   <i type="int" name="TAUPAR">     1</i>
   <i type="int" name="OMEGAPAR">    -1</i>
   <i name="LAMBDA">      1.00000000</i>
  </separator>
  <separator name="External order field" >
   <i name="OFIELD_KAPPA">      0.00000000</i>
   <v name="OFIELD_K">      0.00000000      0.00000000      0.00000000</v>
   <i name="OFIELD_Q6_NEAR">      0.00000000</i>
   <i name="OFIELD_Q6_FAR">      0.00000000</i>
   <i name="OFIELD_A">      0.00000000</i>
  </separator>
 </parameters>
 <atominfo>
  <atoms>       6 </atoms>
  <types>       2 </types>
  <array name="atoms" >
   <dimension dim="1">ion</dimension>
   <field type="string">element</field>
   <field type="int">atomtype</field>
   <set>
    <rc><c>Mo</c><c>   1</c></rc>
    <rc><c>Mo</c><c>   1</c></rc>
    <rc><c>S </c><c>   2</c></rc>
    <rc><c>S </c><c>   2</c></rc>
    <rc><c>S </c><c>   2</c></rc>
    <rc><c>S </c><c>   2</c></rc>
   </set>
  </array>
  <array name="atomtypes" >
   <dimension dim="1">type</dimension>
   <field type="int">atomspertype</field>
   <field type="string">element</field>
   <field>mass</field>
   <field>valence</field>
   <field type="string">pseudopotential</field>
   <set>
    <rc><c>   2</c><c>Mo</c><c>     95.94000000</c><c>      6.00000000</c><c> PAW_PBE Mo 08Apr2002                   </c></rc>
    <rc><c>   4</c><c>S </c><c>     32.06600000</c><c>      6.00000000</c><c>  PAW_PBE S 17Jan2003                   </c></rc>
   </set>
  </array>
 </atominfo>
 <structure name="initialpos" >
  <crystal>
   <varray name="basis" >
    <v>       3.19031573       0.00000000       0.00000000 </v>
    <v>      -1.59515786       2.76289447       0.00000000 </v>
    <v>       0.00000000       0.00000000      14.87900430 </v>
   </varray>
   <i name="volume">    131.15106795 </i>
   <varray name="rec_basis" >
    <v>       0.31344860       0.18096963       0.00000000 </v>
    <v>       0.00000000       0.36193927       0.00000000 </v>
    <v>       0.00000000       0.00000000       0.06720880 </v>
   </varray>
  </crystal>
  <varray name="positions" >
   <v>       0.33333300       0.66666700       0.25000000 </v>
   <v>       0.66666700       0.33333300       0.75000000 </v>
   <v>       0.33333300       0.66666700       0.85517400 </v>
   <v>       0.66666700       0.33333300       0.14482600 </v>
   <v>       0.66666600       0.33333300       0.35517400 </v>
   <v>       0.33333400       0.66666700       0.64482600 </v>
  </varray>
 </structure>
 <calculation>
  <scstep>
   <time name="dav">    0.65    0.66</time>
   <time name="total">    0.70    0.72</time>
   <energy>
    <i name="alphaZ">     90.42577596 </i>
    <i name="ewald">  -1146.88905665 </i>
    <i name="hartreedc">   -535.10238363 </i>
    <i name="XCdc">    -72.59367838 </i>
    <i name="pawpsdc">    813.77302396 </i>
    <i name="pawaedc">   -658.68146406 </i>
    <i name="eentropy">      0.00000000 </i>
    <i name="bandstr">    206.87441205 </i>
    <i name="atom">   1542.32349226 </i>
    <i name="e_fr_energy">    240.13012153 </i>
    <i name="e_wo_entrp">    240.13012153 </i>
    <i name="e_0_energy">    240.13012153 </i>
   </energy>
  </scstep>
  <scstep>
   <time name="dav">    0.81    0.81</time>
   <time name="total">    0.81    0.81</time>
   <energy>
    <i name="e_fr_energy">    -23.31005136 </i>
    <i name="e_wo_entrp">    -23.31005136 </i>
    <i name="e_0_energy">    -23.31005136 </i>
   </energy>
  </scstep>
  <scstep>
   <time name="dav">    0.83    0.83</time>
   <time name="total">    0.83    0.83</time>
   <energy>
    <i name="e_fr_energy">    -46.07334956 </i>
    <i name="e_wo_entrp">    -46.07334956 </i>
    <i name="e_0_energy">    -46.07334956 </i>
   </energy>
  </scstep>
  <scstep>
   <time name="dav">    0.81    0.81</time>
   <time name="total">    0.81    0.81</time>
   <energy>
    <i name="e_fr_energy">    -46.80151836 </i>
    <i name="e_wo_entrp">    -46.80151836 </i>
    <i name="e_0_energy">    -46.80151836 </i>
   </energy>
  </scstep>
  <scstep>
   <time name="dav">    0.85    0.86</time>
   <time name="total">    0.91    0.91</time>
   <energy>
    <i name="e_fr_energy">    -46.82401283 </i>
    <i name="e_wo_entrp">    -46.82401283 </i>
    <i name="e_0_energy">    -46.82401283 </i>
   </energy>
  </scstep>
  <scstep>
   <time name="diag">    0.13    0.13</time>
   <time name="diis">    0.56    0.56</time>
   <time name="orth">    0.01    0.01</time>
   <time name="total">    0.80    0.80</time>
   <energy>
    <i name="e_fr_energy">    -44.44597677 </i>
    <i name="e_wo_entrp">    -44.44597677 </i>
    <i name="e_0_energy">    -44.44597677 </i>
   </energy>
  </scstep>
  <scstep>
   <time name="diag">    0.13    0.13</time>
   <time name="diis">    0.54    0.54</time>
   <time name="orth">    0.01    0.01</time>
   <time name="total">    0.78    0.79</time>
   <energy>
    <i name="e_fr_energy">    -43.69989357 </i>
    <i name="e_wo_entrp">    -43.69989357 </i>
    <i name="e_0_energy">    -43.69989357 </i>
   </energy>
  </scstep>
  <scstep>
   <time name="diag">    0.13    0.13</time>
   <time name="diis">    0.57    0.57</time>
   <time name="orth">    0.01    0.01</time>
   <time name="total">    0.81    0.81</time>
   <energy>
    <i name="e_fr_energy">    -43.63529136 </i>
    <i name="e_wo_entrp">    -43.63529136 </i>
    <i name="e_0_energy">    -43.63529136 </i>
   </energy>
  </scstep>
  <scstep>
   <time name="diag">    0.13    0.13</time>
   <time name="diis">    0.59    0.59</time>
   <time name="orth">    0.01    0.01</time>
   <time name="total">    0.83    0.83</time>
   <energy>
    <i name="e_fr_energy">    -43.62342324 </i>
    <i name="e_wo_entrp">    -43.62342324 </i>
    <i name="e_0_energy">    -43.62342324 </i>
   </energy>
  </scstep>
  <scstep>
   <time name="diag">    0.13    0.13</time>
   <time name="diis">    0.60    0.60</time>
   <time name="orth">    0.01    0.01</time>
   <time name="total">    0.84    0.84</time>
   <energy>
    <i name="e_fr_energy">    -43.60963200 </i>
    <i name="e_wo_entrp">    -43.60963200 </i>
    <i name="e_0_energy">    -43.60963200 </i>
   </energy>
  </scstep>
  <scstep>
   <time name="diag">    0.13    0.13</time>
   <time name="diis">    0.63    0.63</time>
   <time name="orth">    0.01    0.01</time>
   <time name="total">    0.87    0.87</time>
   <energy>
    <i name="e_fr_energy">    -43.60967963 </i>
    <i name="e_wo_entrp">    -43.60967963 </i>
    <i name="e_0_energy">    -43.60967963 </i>
   </energy>
  </scstep>
  <scstep>
   <time name="diag">    0.13    0.13</time>
   <time name="diis">    0.63    0.63</time>
   <time name="orth">    0.01    0.01</time>
   <time name="total">    0.86    0.86</time>
   <energy>
    <i name="e_fr_energy">    -43.60981644 </i>
    <i name="e_wo_entrp">    -43.60981644 </i>
    <i name="e_0_energy">    -43.60981644 </i>
   </energy>
  </scstep>
  <scstep>
   <time name="diag">    0.13    0.13</time>
   <time name="diis">    0.64    0.64</time>
   <time name="orth">    0.01    0.01</time>
   <time name="total">    0.88    0.88</time>
   <energy>
    <i name="e_fr_energy">    -43.60982741 </i>
    <i name="e_wo_entrp">    -43.60982741 </i>
    <i name="e_0_energy">    -43.60982741 </i>
   </energy>
  </scstep>
  <scstep>
   <time name="diag">    0.13    0.13</time>
   <time name="diis">    0.49    0.49</time>
   <time name="orth">    0.01    0.01</time>
   <time name="total">    0.73    0.73</time>
   <energy>
    <i name="e_fr_energy">    -43.60981498 </i>
    <i name="e_wo_entrp">    -43.60981498 </i>
    <i name="e_0_energy">    -43.60981498 </i>
   </energy>
  </scstep>
  <scstep>
   <time name="diag">    0.13    0.13</time>
   <time name="diis">    0.40    0.40</time>
   <time name="orth">    0.01    0.01</time>
   <time name="total">    0.58    0.59</time>
   <energy>
    <i name="alphaZ">     90.42577596 </i>
    <i name="ewald">  -1146.88905665 </i>
    <i name="hartreedc">   -542.96527038 </i>
    <i name="XCdc">    -70.38589509 </i>
    <i name="pawpsdc">    943.64071953 </i>
    <i name="pawaedc">   -792.02310790 </i>
    <i name="eentropy">      0.00000000 </i>
    <i name="bandstr">    -67.73647306 </i>
    <i name="atom">   1542.32349226 </i>
    <i name="e_fr_energy">    -43.60981531 </i>
    <i name="e_wo_entrp">    -43.60981531 </i>
    <i name="e_0_energy">    -43.60981531 </i>
   </energy>
  </scstep>
  <structure>
   <crystal>
    <varray name="basis" >
     <v>       3.19031573       0.00000000       0.00000000 </v>
     <v>      -1.59515786       2.76289447       0.00000000 </v>
     <v>       0.00000000       0.00000000      14.87900430 </v>
    </varray>
    <i name="volume">    131.15106795 </i>
    <varray name="rec_basis" >
     <v>       0.31344860       0.18096963       0.00000000 </v>
     <v>       0.00000000       0.36193927       0.00000000 </v>
     <v>       0.00000000       0.00000000       0.06720880 </v>
    </varray>
   </crystal>
   <varray name="positions" >
    <v>       0.33333300       0.66666700       0.25000000 </v>
    <v>       0.66666700       0.33333300       0.75000000 </v>
    <v>       0.33333300       0.66666700       0.85517400 </v>
    <v>       0.66666700       0.33333300       0.14482600 </v>
    <v>       0.66666600       0.33333300       0.35517400 </v>
    <v>       0.33333400       0.66666700       0.64482600 </v>
   </varray>
  </structure>
  <varray name="forces" >
   <v>       0.00000000       0.00000000       0.00000000 </v>
   <v>       0.00000000      -0.00000000       0.00000000 </v>
   <v>       0.00000000       0.00000000      -0.08479194 </v>
   <v>      -0.00000000      -0.00000000       0.08479194 </v>
   <v>       0.00000000      -0.00000000      -0.08479194 </v>
   <v>      -0.00000000       0.00000000       0.08479194 </v>
  </varray>
  <varray name="stress" >
   <v>      -4.71931406       0.00000000      -0.00000000 </v>
   <v>       0.00000000      -4.71931406       0.00000000 </v>
   <v>       0.00000000       0.00000000     -16.18174334 </v>
  </varray>
  <energy>
   <i name="e_fr_energy">    -44.94110232 </i>
   <i name="e_wo_entrp">    -44.94110232 </i>
   <i name="e_0_energy">      0.00000000 </i>
  </energy>
  <time name="totalsc">   13.22   13.31</time>
  <eigenvalues>
   <array>
    <dimension dim="1">band</dimension>
    <dimension dim="2">kpoint</dimension>
    <dimension dim="3">spin</dimension>
    <field>eigene</field>
    <field>occ</field>
    <set>
     <set comment="spin 1">
      <set comment="kpoint 1">
       <r>  -10.9295    1.0000 </r>
       <r>  -10.9105    1.0000 </r>
       <r>   -9.7290    1.0000 </r>
       <r>   -9.6950    1.0000 </r>
       <r>   -2.5236    1.0000 </r>
       <r>   -2.3621    1.0000 </r>
       <r>    0.5195    1.0000 </r>
       <r>    0.5196    1.0000 </r>
       <r>    0.5201    1.0000 </r>
       <r>    0.5201    1.0000 </r>
       <r>    1.1061    1.0000 </r>
       <r>    1.6245    1.0000 </r>
       <r>    1.6245    1.0000 </r>
       <r>    1.6264    1.0000 </r>
       <r>    1.6264    1.0000 </r>
       <r>    1.6744    1.0000 </r>
       <r>    2.9224    1.0000 </r>
       <r>    3.2982    1.0000 </r>
       <r>    5.8739    0.0000 </r>
       <r>    5.8881    0.0000 </r>
       <r>    5.9227    0.0000 </r>
       <r>    6.0819    0.0000 </r>
      </set>
      <set comment="kpoint 2">
       <r>  -10.7151    1.0000 </r>
       <r>  -10.6966    1.0000 </r>
       <r>   -9.6254    1.0000 </r>
       <r>   -9.5939    1.0000 </r>
       <r>   -2.2777    1.0000 </r>
       <r>   -2.1189    1.0000 </r>
       <r>    0.0551    1.0000 </r>
       <r>    0.0578    1.0000 </r>
       <r>    0.4564    1.0000 </r>
       <r>    0.6725    1.0000 </r>
       <r>    0.7536    1.0000 </r>
       <r>    0.7549    1.0000 </r>
       <r>    1.2884    1.0000 </r>
       <r>    1.2910    1.0000 </r>
       <r>    1.9305    1.0000 </r>
       <r>    2.2144    1.0000 </r>
       <r>    2.8433    1.0000 </r>
       <r>    3.0853    1.0000 </r>
       <r>    5.5150    0.0000 </r>
       <r>    5.6493    0.0000 </r>
       <r>    5.7160    0.0000 </r>
       <r>    5.7730    0.0000 </r>
      </set>
      <set comment="kpoint 3">
       <r>  -10.1455    1.0000 </r>
       <r>  -10.1287    1.0000 </r>
       <r>   -9.3530    1.0000 </r>
       <r>   -9.3286    1.0000 </r>
       <r>   -1.8879    1.0000 </r>
       <r>   -1.7770    1.0000 </r>
       <r>   -0.6916    1.0000 </r>
       <r>   -0.6481    1.0000 </r>
       <r>   -0.4613    1.0000 </r>
       <r>   -0.3599    1.0000 </r>
       <r>    0.6530    1.0000 </r>
       <r>    0.6564    1.0000 </r>
       <r>    1.3396    1.0000 </r>
       <r>    1.3432    1.0000 </r>
       <r>    1.7040    1.0000 </r>
       <r>    1.9127    1.0000 </r>
       <r>    2.3697    1.0000 </r>
       <r>    2.4182    1.0000 </r>
       <r>    5.1187    0.0000 </r>
       <r>    5.4380    0.0000 </r>
       <r>    5.4403    0.0000 </r>
       <r>    5.4543    0.0000 </r>
      </set>
      <set comment="kpoint 4">
       <r>   -9.4679    1.0000 </r>
       <r>   -9.4560    1.0000 </r>
       <r>   -9.0395    1.0000 </r>
       <r>   -9.0252    1.0000 </r>
       <r>   -2.2853    1.0000 </r>
       <r>   -2.2506    1.0000 </r>
       <r>   -1.2976    1.0000 </r>
       <r>   -1.2546    1.0000 </r>
       <r>   -0.8466    1.0000 </r>
       <r>   -0.7616    1.0000 </r>
       <r>    0.1554    1.0000 </r>
       <r>    0.1594    1.0000 </r>
       <r>    1.3419    1.0000 </r>
       <r>    1.4495    1.0000 </r>
       <r>    1.9277    1.0000 </r>
       <r>    1.9363    1.0000 </r>
       <r>    2.1733    1.0000 </r>
       <r>    2.2241    1.0000 </r>
       <r>    5.2593    0.0000 </r>
       <r>    5.2684    0.0000 </r>
       <r>    5.4544    0.0000 </r>
       <r>    5.6329    0.0000 </r>
      </set>
      <set comment="kpoint 5">
       <r>   -9.1370    1.0000 </r>
       <r>   -9.1304    1.0000 </r>
       <r>   -8.8922    1.0000 </r>
       <r>   -8.8858    1.0000 </r>
       <r>   -2.6137    1.0000 </r>
       <r>   -2.5868    1.0000 </r>
       <r>   -1.6529    1.0000 </r>
       <r>   -1.6284    1.0000 </r>
       <r>   -0.9684    1.0000 </r>
       <r>   -0.8925    1.0000 </r>
       <r>   -0.0253    1.0000 </r>
       <r>   -0.0211    1.0000 </r>
       <r>    1.2465    1.0000 </r>
       <r>    1.2660    1.0000 </r>
       <r>    2.1531    1.0000 </r>
       <r>    2.1652    1.0000 </r>
       <r>    2.4770    1.0000 </r>
       <r>    2.4808    1.0000 </r>
       <r>    5.2842    0.0000 </r>
       <r>    5.2880    0.0000 </r>
       <r>    5.7738    0.0000 </r>
       <r>    5.8288    0.0000 </r>
      </set>
      <set comment="kpoint 6">
       <r>  -10.3218    1.0000 </r>
       <r>  -10.3043    1.0000 </r>
       <r>   -9.4359    1.0000 </r>
       <r>   -9.4092    1.0000 </r>
       <r>   -1.9210    1.0000 </r>
       <r>   -1.7813    1.0000 </r>
       <r>   -0.5137    1.0000 </r>
       <r>   -0.5011    1.0000 </r>
       <r>   -0.0652    1.0000 </r>
       <r>    0.0768    1.0000 </r>
       <r>    0.4638    1.0000 </r>
       <r>    0.4899    1.0000 </r>
       <r>    1.0929    1.0000 </r>
       <r>    1.0947    1.0000 </r>
       <r>    2.0957    1.0000 </r>
       <r>    2.2981    1.0000 </r>
       <r>    2.5520    1.0000 </r>
       <r>    2.6275    1.0000 </r>
       <r>    5.0620    0.0000 </r>
       <r>    5.3413    0.0000 </r>
       <r>    5.5304    0.0000 </r>
       <r>    5.5928    0.0000 </r>
      </set>
      <set comment="kpoint 7">
       <r>   -9.6865    1.0000 </r>
       <r>   -9.6724    1.0000 </r>
       <r>   -9.1331    1.0000 </r>
       <r>   -9.1149    1.0000 </r>
       <r>   -1.9396    1.0000 </r>
       <r>   -1.8866    1.0000 </r>
       <r>   -0.9512    1.0000 </r>
       <r>   -0.9200    1.0000 </r>
       <r>   -0.7085    1.0000 </r>
       <r>   -0.6350    1.0000 </r>
       <r>   -0.0667    1.0000 </r>
       <r>    0.0079    1.0000 </r>
       <r>    1.1903    1.0000 </r>
       <r>    1.1961    1.0000 </r>
       <r>    1.7872    1.0000 </r>
       <r>    1.8736    1.0000 </r>
       <r>    2.3022    1.0000 </r>
       <r>    2.3120    1.0000 </r>
       <r>    4.9960    0.0000 </r>
       <r>    5.2122    0.0000 </r>
       <r>    5.5268    0.0000 </r>
       <r>    5.6330    0.0000 </r>
      </set>
      <set comment="kpoint 8">
       <r>   -9.1528    1.0000 </r>
       <r>   -9.1451    1.0000 </r>
       <r>   -8.8842    1.0000 </r>
       <r>   -8.8759    1.0000 </r>
       <r>   -2.3265    1.0000 </r>
       <r>   -2.2996    1.0000 </r>
       <r>   -1.7023    1.0000 </r>
       <r>   -1.6931    1.0000 </r>
       <r>   -0.8380    1.0000 </r>
       <r>   -0.7674    1.0000 </r>
       <r>   -0.0673    1.0000 </r>
       <r>   -0.0249    1.0000 </r>
       <r>    1.1999    1.0000 </r>
       <r>    1.2162    1.0000 </r>
       <r>    1.3283    1.0000 </r>
       <r>    1.3666    1.0000 </r>
       <r>    2.6246    1.0000 </r>
       <r>    2.6429    1.0000 </r>
       <r>    5.2706    0.0000 </r>
       <r>    5.3348    0.0000 </r>
       <r>    5.7782    0.0000 </r>
       <r>    5.8536    0.0000 </r>
      </set>
      <set comment="kpoint 9">
       <r>   -9.1683    1.0000 </r>
       <r>   -9.1596    1.0000 </r>
       <r>   -8.8760    1.0000 </r>
       <r>   -8.8661    1.0000 </r>
       <r>   -1.9672    1.0000 </r>
       <r>   -1.9387    1.0000 </r>
       <r>   -1.7537    1.0000 </r>
       <r>   -1.7425    1.0000 </r>
       <r>   -0.4881    1.0000 </r>
       <r>   -0.4637    1.0000 </r>
       <r>   -0.1392    1.0000 </r>
       <r>   -0.0510    1.0000 </r>
       <r>    0.2147    1.0000 </r>
       <r>    0.2373    1.0000 </r>
       <r>    1.4762    1.0000 </r>
       <r>    1.4869    1.0000 </r>
       <r>    2.6005    1.0000 </r>
       <r>    2.6103    1.0000 </r>
       <r>    5.1855    0.0000 </r>
       <r>    5.3136    0.0000 </r>
       <r>    5.8423    0.0000 </r>
       <r>    6.0784    0.0000 </r>
      </set>
      <set comment="kpoint 10">
       <r>   -8.9306    1.0000 </r>
       <r>   -8.9275    1.0000 </r>
       <r>   -8.7535    1.0000 </r>
       <r>   -8.7503    1.0000 </r>
       <r>   -2.1379    1.0000 </r>
       <r>   -2.1272    1.0000 </r>
       <r>   -1.7918    1.0000 </r>
       <r>   -1.7756    1.0000 </r>
       <r>   -0.7781    1.0000 </r>
       <r>   -0.7408    1.0000 </r>
       <r>   -0.1070    1.0000 </r>
       <r>   -0.0861    1.0000 </r>
       <r>    0.1069    1.0000 </r>
       <r>    0.1579    1.0000 </r>
       <r>    1.0757    1.0000 </r>
       <r>    1.1156    1.0000 </r>
       <r>    2.9621    1.0000 </r>
       <r>    2.9833    1.0000 </r>
       <r>    4.9236    0.0000 </r>
       <r>    4.9325    0.0000 </r>
       <r>    6.1612    0.0000 </r>
       <r>    6.3724    0.0000 </r>
      </set>
      <set comment="kpoint 11">
       <r>  -10.9201    1.0000 </r>
       <r>  -10.9201    1.0000 </r>
       <r>   -9.7119    1.0000 </r>
       <r>   -9.7119    1.0000 </r>
       <r>   -2.4456    1.0000 </r>
       <r>   -2.4456    1.0000 </r>
       <r>    0.5198    1.0000 </r>
       <r>    0.5198    1.0000 </r>
       <r>    0.5198    1.0000 </r>
       <r>    0.5198    1.0000 </r>
       <r>    1.3628    1.0000 </r>
       <r>    1.3628    1.0000 </r>
       <r>    1.6254    1.0000 </r>
       <r>    1.6254    1.0000 </r>
       <r>    1.6255    1.0000 </r>
       <r>    1.6255    1.0000 </r>
       <r>    3.1409    1.0000 </r>
       <r>    3.1409    1.0000 </r>
       <r>    5.8738    0.0000 </r>
       <r>    5.8898    0.0000 </r>
       <r>    5.9170    0.0000 </r>
       <r>    6.0082    0.0000 </r>
      </set>
      <set comment="kpoint 12">
       <r>  -10.7060    1.0000 </r>
       <r>  -10.7060    1.0000 </r>
       <r>   -9.6095    1.0000 </r>
       <r>   -9.6095    1.0000 </r>
       <r>   -2.2013    1.0000 </r>
       <r>   -2.2013    1.0000 </r>
       <r>    0.0561    1.0000 </r>
       <r>    0.0561    1.0000 </r>
       <r>    0.5711    1.0000 </r>
       <r>    0.5711    1.0000 </r>
       <r>    0.7543    1.0000 </r>
       <r>    0.7543    1.0000 </r>
       <r>    1.2897    1.0000 </r>
       <r>    1.2897    1.0000 </r>
       <r>    2.0427    1.0000 </r>
       <r>    2.0427    1.0000 </r>
       <r>    2.9902    1.0000 </r>
       <r>    2.9903    1.0000 </r>
       <r>    5.5734    0.0000 </r>
       <r>    5.6037    0.0000 </r>
       <r>    5.7019    0.0000 </r>
       <r>    5.7933    0.0000 </r>
      </set>
      <set comment="kpoint 13">
       <r>  -10.1372    1.0000 </r>
       <r>  -10.1372    1.0000 </r>
       <r>   -9.3407    1.0000 </r>
       <r>   -9.3407    1.0000 </r>
       <r>   -1.8342    1.0000 </r>
       <r>   -1.8342    1.0000 </r>
       <r>   -0.6755    1.0000 </r>
       <r>   -0.6755    1.0000 </r>
       <r>   -0.4027    1.0000 </r>
       <r>   -0.4027    1.0000 </r>
       <r>    0.6547    1.0000 </r>
       <r>    0.6547    1.0000 </r>
       <r>    1.3414    1.0000 </r>
       <r>    1.3414    1.0000 </r>
       <r>    1.8005    1.0000 </r>
       <r>    1.8006    1.0000 </r>
       <r>    2.3994    1.0000 </r>
       <r>    2.3994    1.0000 </r>
       <r>    5.2600    0.0000 </r>
       <r>    5.2606    0.0000 </r>
       <r>    5.4465    0.0000 </r>
       <r>    5.4887    0.0000 </r>
      </set>
      <set comment="kpoint 14">
       <r>   -9.4621    1.0000 </r>
       <r>   -9.4621    1.0000 </r>
       <r>   -9.0322    1.0000 </r>
       <r>   -9.0322    1.0000 </r>
       <r>   -2.2682    1.0000 </r>
       <r>   -2.2682    1.0000 </r>
       <r>   -1.2780    1.0000 </r>
       <r>   -1.2780    1.0000 </r>
       <r>   -0.8021    1.0000 </r>
       <r>   -0.8021    1.0000 </r>
       <r>    0.1574    1.0000 </r>
       <r>    0.1574    1.0000 </r>
       <r>    1.3936    1.0000 </r>
       <r>    1.3937    1.0000 </r>
       <r>    1.9320    1.0000 </r>
       <r>    1.9320    1.0000 </r>
       <r>    2.2007    1.0000 </r>
       <r>    2.2007    1.0000 </r>
       <r>    5.2638    0.0000 </r>
       <r>    5.2638    0.0000 </r>
       <r>    5.5374    0.0000 </r>
       <r>    5.5374    0.0000 </r>
      </set>
      <set comment="kpoint 15">
       <r>   -9.1338    1.0000 </r>
       <r>   -9.1338    1.0000 </r>
       <r>   -8.8890    1.0000 </r>
       <r>   -8.8890    1.0000 </r>
       <r>   -2.6004    1.0000 </r>
       <r>   -2.6004    1.0000 </r>
       <r>   -1.6415    1.0000 </r>
       <r>   -1.6415    1.0000 </r>
       <r>   -0.9295    1.0000 </r>
       <r>   -0.9295    1.0000 </r>
       <r>   -0.0232    1.0000 </r>
       <r>   -0.0232    1.0000 </r>
       <r>    1.2561    1.0000 </r>
       <r>    1.2561    1.0000 </r>
       <r>    2.1591    1.0000 </r>
       <r>    2.1591    1.0000 </r>
       <r>    2.4790    1.0000 </r>
       <r>    2.4790    1.0000 </r>
       <r>    5.2861    0.0000 </r>
       <r>    5.2861    0.0000 </r>
       <r>    5.8016    0.0000 </r>
       <r>    5.8017    0.0000 </r>
      </set>
      <set comment="kpoint 16">
       <r>  -10.3131    1.0000 </r>
       <r>  -10.3131    1.0000 </r>
       <r>   -9.4225    1.0000 </r>
       <r>   -9.4225    1.0000 </r>
       <r>   -1.8540    1.0000 </r>
       <r>   -1.8540    1.0000 </r>
       <r>   -0.5092    1.0000 </r>
       <r>   -0.5092    1.0000 </r>
       <r>    0.0126    1.0000 </r>
       <r>    0.0126    1.0000 </r>
       <r>    0.4758    1.0000 </r>
       <r>    0.4758    1.0000 </r>
       <r>    1.0938    1.0000 </r>
       <r>    1.0938    1.0000 </r>
       <r>    2.1816    1.0000 </r>
       <r>    2.1816    1.0000 </r>
       <r>    2.6015    1.0000 </r>
       <r>    2.6015    1.0000 </r>
       <r>    5.1820    0.0000 </r>
       <r>    5.1830    0.0000 </r>
       <r>    5.5572    0.0000 </r>
       <r>    5.5828    0.0000 </r>
      </set>
      <set comment="kpoint 17">
       <r>   -9.6795    1.0000 </r>
       <r>   -9.6795    1.0000 </r>
       <r>   -9.1239    1.0000 </r>
       <r>   -9.1239    1.0000 </r>
       <r>   -1.9134    1.0000 </r>
       <r>   -1.9134    1.0000 </r>
       <r>   -0.9374    1.0000 </r>
       <r>   -0.9374    1.0000 </r>
       <r>   -0.6717    1.0000 </r>
       <r>   -0.6717    1.0000 </r>
       <r>   -0.0267    1.0000 </r>
       <r>   -0.0267    1.0000 </r>
       <r>    1.1930    1.0000 </r>
       <r>    1.1930    1.0000 </r>
       <r>    1.8283    1.0000 </r>
       <r>    1.8283    1.0000 </r>
       <r>    2.3077    1.0000 </r>
       <r>    2.3077    1.0000 </r>
       <r>    5.1026    0.0000 </r>
       <r>    5.1026    0.0000 </r>
       <r>    5.5547    0.0000 </r>
       <r>    5.5642    0.0000 </r>
      </set>
      <set comment="kpoint 18">
       <r>   -9.1490    1.0000 </r>
       <r>   -9.1490    1.0000 </r>
       <r>   -8.8800    1.0000 </r>
       <r>   -8.8800    1.0000 </r>
       <r>   -2.3131    1.0000 </r>
       <r>   -2.3131    1.0000 </r>
       <r>   -1.6979    1.0000 </r>
       <r>   -1.6979    1.0000 </r>
       <r>   -0.8034    1.0000 </r>
       <r>   -0.8034    1.0000 </r>
       <r>   -0.0447    1.0000 </r>
       <r>   -0.0447    1.0000 </r>
       <r>    1.2074    1.0000 </r>
       <r>    1.2074    1.0000 </r>
       <r>    1.3474    1.0000 </r>
       <r>    1.3474    1.0000 </r>
       <r>    2.6340    1.0000 </r>
       <r>    2.6340    1.0000 </r>
       <r>    5.3030    0.0000 </r>
       <r>    5.3030    0.0000 </r>
       <r>    5.8120    0.0000 </r>
       <r>    5.8121    0.0000 </r>
      </set>
      <set comment="kpoint 19">
       <r>   -9.1640    1.0000 </r>
       <r>   -9.1640    1.0000 </r>
       <r>   -8.8710    1.0000 </r>
       <r>   -8.8710    1.0000 </r>
       <r>   -1.9532    1.0000 </r>
       <r>   -1.9532    1.0000 </r>
       <r>   -1.7480    1.0000 </r>
       <r>   -1.7480    1.0000 </r>
       <r>   -0.4797    1.0000 </r>
       <r>   -0.4797    1.0000 </r>
       <r>   -0.0909    1.0000 </r>
       <r>   -0.0909    1.0000 </r>
       <r>    0.2261    1.0000 </r>
       <r>    0.2261    1.0000 </r>
       <r>    1.4806    1.0000 </r>
       <r>    1.4806    1.0000 </r>
       <r>    2.6055    1.0000 </r>
       <r>    2.6055    1.0000 </r>
       <r>    5.2494    0.0000 </r>
       <r>    5.2494    0.0000 </r>
       <r>    5.8586    0.0000 </r>
       <r>    6.0696    0.0000 </r>
      </set>
      <set comment="kpoint 20">
       <r>   -8.9290    1.0000 </r>
       <r>   -8.9290    1.0000 </r>
       <r>   -8.7519    1.0000 </r>
       <r>   -8.7519    1.0000 </r>
       <r>   -2.1326    1.0000 </r>
       <r>   -2.1326    1.0000 </r>
       <r>   -1.7835    1.0000 </r>
       <r>   -1.7835    1.0000 </r>
       <r>   -0.7604    1.0000 </r>
       <r>   -0.7604    1.0000 </r>
       <r>   -0.0993    1.0000 </r>
       <r>   -0.0993    1.0000 </r>
       <r>    0.1372    1.0000 </r>
       <r>    0.1372    1.0000 </r>
       <r>    1.0941    1.0000 </r>
       <r>    1.0941    1.0000 </r>
       <r>    2.9726    1.0000 </r>
       <r>    2.9726    1.0000 </r>
       <r>    4.9282    0.0000 </r>
       <r>    4.9282    0.0000 </r>
       <r>    6.2324    0.0000 </r>
       <r>    6.2420    0.0000 </r>
      </set>
     </set>
    </set>
   </array>
  </eigenvalues>
  <separator name="orbital magnetization" >
   <v name="MAGDIPOLOUT">      0.00000000      0.00000000      0.00000000</v>
  </separator>
  <dos>
   <i name="efermi">      3.33542230 </i>
   <total>
    <array>
     <dimension dim="1">gridpoints</dimension>
     <dimension dim="2">spin</dimension>
     <field>energy</field>
     <field>total</field>
     <field>integrated</field>
     <set>
      <set comment="spin 1">
       <r>   -12.9295     0.0000     0.0000 </r>
       <r>   -12.8585     0.0000     0.0000 </r>
       <r>   -12.7875     0.0000     0.0000 </r>
       <r>   -12.7165     0.0000     0.0000 </r>
       <r>   -12.6455     0.0000     0.0000 </r>
       <r>   -12.5745     0.0000     0.0000 </r>
       <r>   -12.5034     0.0000     0.0000 </r>
       <r>   -12.4324     0.0000     0.0000 </r>
       <r>   -12.3614     0.0000     0.0000 </r>
       <r>   -12.2904     0.0000     0.0000 </r>
       <r>   -12.2194     0.0000     0.0000 </r>
       <r>   -12.1484     0.0000     0.0000 </r>
       <r>   -12.0774     0.0000     0.0000 </r>
       <r>   -12.0064     0.0000     0.0000 </r>
       <r>   -11.9354     0.0000     0.0000 </r>
       <r>   -11.8644     0.0000     0.0000 </r>
       <r>   -11.7934     0.0000     0.0000 </r>
       <r>   -11.7224     0.0000     0.0000 </r>
       <r>   -11.6514     0.0000     0.0000 </r>
       <r>   -11.5804     0.0000     0.0000 </r>
       <r>   -11.5094     0.0000     0.0000 </r>
       <r>   -11.4384     0.0000     0.0000 </r>
       <r>   -11.3673     0.0000     0.0000 </r>
       <r>   -11.2963     0.0000     0.0000 </r>
       <r>   -11.2253     0.0000     0.0000 </r>
       <r>   -11.1543     0.0000     0.0000 </r>
       <r>   -11.0833     0.0000     0.0000 </r>
       <r>   -11.0123     0.0000     0.0000 </r>
       <r>   -10.9413     0.0000     0.0000 </r>
       <r>   -10.8703     0.4068     0.0102 </r>
       <r>   -10.7993     0.9874     0.0597 </r>
       <r>   -10.7283     1.5681     0.1505 </r>
       <r>   -10.6573     0.9997     0.2350 </r>
       <r>   -10.5863     1.0655     0.3083 </r>
       <r>   -10.5153     1.1313     0.3863 </r>
       <r>   -10.4443     1.1971     0.4690 </r>
       <r>   -10.3733     1.2629     0.5563 </r>
       <r>   -10.3023     1.3205     0.6483 </r>
       <r>   -10.2312     1.3323     0.7425 </r>
       <r>   -10.1602     1.3442     0.8375 </r>
       <r>   -10.0892     1.3852     0.9341 </r>
       <r>   -10.0182     1.4402     1.0344 </r>
       <r>    -9.9472     1.4952     1.1386 </r>
       <r>    -9.8762     1.5503     1.2467 </r>
       <r>    -9.8052     1.6053     1.3588 </r>
       <r>    -9.7342     1.6603     1.4747 </r>
       <r>    -9.6632     3.6219     1.6411 </r>
       <r>    -9.5922     4.1527     1.9606 </r>
       <r>    -9.5212     4.6446     2.2729 </r>
       <r>    -9.4502     5.1529     2.6203 </r>
       <r>    -9.3792     5.5963     3.0039 </r>
       <r>    -9.3082     6.0439     3.4153 </r>
       <r>    -9.2372     6.6086     3.8645 </r>
       <r>    -9.1661     7.2048     4.3538 </r>
       <r>    -9.0951     8.4627     5.1531 </r>
       <r>    -9.0241     8.3675     5.7489 </r>
       <r>    -8.9531     8.7233     6.3556 </r>
       <r>    -8.8821    25.8674     7.0919 </r>
       <r>    -8.8111     5.8481     7.6709 </r>
       <r>    -8.7401     0.0000     8.0000 </r>
       <r>    -8.6691     0.0000     8.0000 </r>
       <r>    -8.5981     0.0000     8.0000 </r>
       <r>    -8.5271     0.0000     8.0000 </r>
       <r>    -8.4561     0.0000     8.0000 </r>
       <r>    -8.3851     0.0000     8.0000 </r>
       <r>    -8.3141     0.0000     8.0000 </r>
       <r>    -8.2431     0.0000     8.0000 </r>
       <r>    -8.1721     0.0000     8.0000 </r>
       <r>    -8.1011     0.0000     8.0000 </r>
       <r>    -8.0300     0.0000     8.0000 </r>
       <r>    -7.9590     0.0000     8.0000 </r>
       <r>    -7.8880     0.0000     8.0000 </r>
       <r>    -7.8170     0.0000     8.0000 </r>
       <r>    -7.7460     0.0000     8.0000 </r>
       <r>    -7.6750     0.0000     8.0000 </r>
       <r>    -7.6040     0.0000     8.0000 </r>
       <r>    -7.5330     0.0000     8.0000 </r>
       <r>    -7.4620     0.0000     8.0000 </r>
       <r>    -7.3910     0.0000     8.0000 </r>
       <r>    -7.3200     0.0000     8.0000 </r>
       <r>    -7.2490     0.0000     8.0000 </r>
       <r>    -7.1780     0.0000     8.0000 </r>
       <r>    -7.1070     0.0000     8.0000 </r>
       <r>    -7.0360     0.0000     8.0000 </r>
       <r>    -6.9649     0.0000     8.0000 </r>
       <r>    -6.8939     0.0000     8.0000 </r>
       <r>    -6.8229     0.0000     8.0000 </r>
       <r>    -6.7519     0.0000     8.0000 </r>
       <r>    -6.6809     0.0000     8.0000 </r>
       <r>    -6.6099     0.0000     8.0000 </r>
       <r>    -6.5389     0.0000     8.0000 </r>
       <r>    -6.4679     0.0000     8.0000 </r>
       <r>    -6.3969     0.0000     8.0000 </r>
       <r>    -6.3259     0.0000     8.0000 </r>
       <r>    -6.2549     0.0000     8.0000 </r>
       <r>    -6.1839     0.0000     8.0000 </r>
       <r>    -6.1129     0.0000     8.0000 </r>
       <r>    -6.0419     0.0000     8.0000 </r>
       <r>    -5.9709     0.0000     8.0000 </r>
       <r>    -5.8999     0.0000     8.0000 </r>
       <r>    -5.8288     0.0000     8.0000 </r>
       <r>    -5.7578     0.0000     8.0000 </r>
       <r>    -5.6868     0.0000     8.0000 </r>
       <r>    -5.6158     0.0000     8.0000 </r>
       <r>    -5.5448     0.0000     8.0000 </r>
       <r>    -5.4738     0.0000     8.0000 </r>
       <r>    -5.4028     0.0000     8.0000 </r>
       <r>    -5.3318     0.0000     8.0000 </r>
       <r>    -5.2608     0.0000     8.0000 </r>
       <r>    -5.1898     0.0000     8.0000 </r>
       <r>    -5.1188     0.0000     8.0000 </r>
       <r>    -5.0478     0.0000     8.0000 </r>
       <r>    -4.9768     0.0000     8.0000 </r>
       <r>    -4.9058     0.0000     8.0000 </r>
       <r>    -4.8348     0.0000     8.0000 </r>
       <r>    -4.7637     0.0000     8.0000 </r>
       <r>    -4.6927     0.0000     8.0000 </r>
       <r>    -4.6217     0.0000     8.0000 </r>
       <r>    -4.5507     0.0000     8.0000 </r>
       <r>    -4.4797     0.0000     8.0000 </r>
       <r>    -4.4087     0.0000     8.0000 </r>
       <r>    -4.3377     0.0000     8.0000 </r>
       <r>    -4.2667     0.0000     8.0000 </r>
       <r>    -4.1957     0.0000     8.0000 </r>
       <r>    -4.1247     0.0000     8.0000 </r>
       <r>    -4.0537     0.0000     8.0000 </r>
       <r>    -3.9827     0.0000     8.0000 </r>
       <r>    -3.9117     0.0000     8.0000 </r>
       <r>    -3.8407     0.0000     8.0000 </r>
       <r>    -3.7697     0.0000     8.0000 </r>
       <r>    -3.6987     0.0000     8.0000 </r>
       <r>    -3.6276     0.0000     8.0000 </r>
       <r>    -3.5566     0.0000     8.0000 </r>
       <r>    -3.4856     0.0000     8.0000 </r>
       <r>    -3.4146     0.0000     8.0000 </r>
       <r>    -3.3436     0.0000     8.0000 </r>
       <r>    -3.2726     0.0000     8.0000 </r>
       <r>    -3.2016     0.0000     8.0000 </r>
       <r>    -3.1306     0.0000     8.0000 </r>
       <r>    -3.0596     0.0000     8.0000 </r>
       <r>    -2.9886     0.0000     8.0000 </r>
       <r>    -2.9176     0.0000     8.0000 </r>
       <r>    -2.8466     0.0000     8.0000 </r>
       <r>    -2.7756     0.0000     8.0000 </r>
       <r>    -2.7046     0.0000     8.0000 </r>
       <r>    -2.6336     0.0000     8.0000 </r>
       <r>    -2.5625     0.4689     8.0092 </r>
       <r>    -2.4915     1.3703     8.0740 </r>
       <r>    -2.4205     2.4421     8.2082 </r>
       <r>    -2.3495     3.7038     8.4254 </r>
       <r>    -2.2785     5.2710     8.7521 </r>
       <r>    -2.2075     5.6990     9.1400 </r>
       <r>    -2.1365    12.3180     9.5687 </r>
       <r>    -2.0655     7.1383    10.1613 </r>
       <r>    -1.9945     6.0251    10.6286 </r>
       <r>    -1.9235    11.9510    11.1469 </r>
       <r>    -1.8525     5.5767    11.8010 </r>
       <r>    -1.7815    10.6290    12.0717 </r>
       <r>    -1.7105     6.6586    12.7599 </r>
       <r>    -1.6395     2.9821    13.1354 </r>
       <r>    -1.5685     2.5991    13.3287 </r>
       <r>    -1.4975     2.3713    13.5051 </r>
       <r>    -1.4264     2.1436    13.6654 </r>
       <r>    -1.3554     1.9163    13.8095 </r>
       <r>    -1.2844     1.6967    13.9376 </r>
       <r>    -1.2134     1.6731    14.0564 </r>
       <r>    -1.1424     1.6807    14.1755 </r>
       <r>    -1.0714     1.6882    14.2951 </r>
       <r>    -1.0004     1.6958    14.4152 </r>
       <r>    -0.9294     2.6795    14.5481 </r>
       <r>    -0.8584     7.1063    14.8841 </r>
       <r>    -0.7874    12.2170    15.5850 </r>
       <r>    -0.7164     9.8916    16.4411 </r>
       <r>    -0.6454     9.7562    17.1372 </r>
       <r>    -0.5744     6.9420    17.7417 </r>
       <r>    -0.5034     3.7507    18.1206 </r>
       <r>    -0.4324     2.5220    18.3233 </r>
       <r>    -0.3613     2.2980    18.4937 </r>
       <r>    -0.2903     2.1373    18.6512 </r>
       <r>    -0.2193     1.9771    18.7973 </r>
       <r>    -0.1483     1.8171    18.9320 </r>
       <r>    -0.0773    19.1305    19.6247 </r>
       <r>    -0.0063    10.4432    20.9407 </r>
       <r>     0.0647     6.7029    21.5061 </r>
       <r>     0.1357     6.7585    21.9443 </r>
       <r>     0.2067     4.6996    22.3937 </r>
       <r>     0.2777     3.7078    22.6726 </r>
       <r>     0.3487     3.5214    22.9292 </r>
       <r>     0.4197     3.3349    23.1726 </r>
       <r>     0.4907     4.1972    23.4218 </r>
       <r>     0.5617     5.2663    23.7675 </r>
       <r>     0.6327     5.0121    24.1250 </r>
       <r>     0.7037     3.5885    24.4390 </r>
       <r>     0.7748     1.8208    24.6304 </r>
       <r>     0.8458     1.7737    24.7580 </r>
       <r>     0.9168     1.7333    24.8825 </r>
       <r>     0.9878     1.6996    25.0043 </r>
       <r>     1.0588     1.6726    25.1240 </r>
       <r>     1.1298     6.3855    25.4065 </r>
       <r>     1.2008    11.4714    26.0981 </r>
       <r>     1.2718    16.8995    27.3440 </r>
       <r>     1.3428     9.5637    28.3431 </r>
       <r>     1.4138     3.7877    28.7571 </r>
       <r>     1.4848     3.0018    28.9877 </r>
       <r>     1.5558     2.9182    29.1978 </r>
       <r>     1.6268     2.8478    29.4022 </r>
       <r>     1.6978     3.1593    29.6151 </r>
       <r>     1.7688     4.4984    29.8730 </r>
       <r>     1.8398     7.8649    30.3129 </r>
       <r>     1.9109     7.4878    30.8994 </r>
       <r>     1.9819     4.7856    31.2797 </r>
       <r>     2.0529     3.9564    31.5948 </r>
       <r>     2.1239     2.3915    31.8225 </r>
       <r>     2.1949     1.4892    31.9480 </r>
       <r>     2.2659     3.9147    32.1259 </r>
       <r>     2.3369     8.3660    32.5866 </r>
       <r>     2.4079     7.4814    33.1474 </r>
       <r>     2.4789     6.9872    33.6607 </r>
       <r>     2.5499     6.3933    34.1357 </r>
       <r>     2.6209     5.9219    34.5735 </r>
       <r>     2.6919     4.0725    34.8981 </r>
       <r>     2.7629     3.5473    35.1686 </r>
       <r>     2.8339     3.0216    35.4019 </r>
       <r>     2.9049     2.8217    35.6114 </r>
       <r>     2.9760     4.3483    35.8218 </r>
       <r>     3.0470     0.9300    35.9136 </r>
       <r>     3.1180     0.5270    35.9695 </r>
       <r>     3.1890     0.1853    35.9933 </r>
       <r>     3.2600     0.0227    35.9997 </r>
       <r>     3.3310     0.0000    36.0000 </r>
       <r>     3.4020     0.0000    36.0000 </r>
       <r>     3.4730     0.0000    36.0000 </r>
       <r>     3.5440     0.0000    36.0000 </r>
       <r>     3.6150     0.0000    36.0000 </r>
       <r>     3.6860     0.0000    36.0000 </r>
       <r>     3.7570     0.0000    36.0000 </r>
       <r>     3.8280     0.0000    36.0000 </r>
       <r>     3.8990     0.0000    36.0000 </r>
       <r>     3.9700     0.0000    36.0000 </r>
       <r>     4.0410     0.0000    36.0000 </r>
       <r>     4.1121     0.0000    36.0000 </r>
       <r>     4.1831     0.0000    36.0000 </r>
       <r>     4.2541     0.0000    36.0000 </r>
       <r>     4.3251     0.0000    36.0000 </r>
       <r>     4.3961     0.0000    36.0000 </r>
       <r>     4.4671     0.0000    36.0000 </r>
       <r>     4.5381     0.0000    36.0000 </r>
       <r>     4.6091     0.0000    36.0000 </r>
       <r>     4.6801     0.0000    36.0000 </r>
       <r>     4.7511     0.0000    36.0000 </r>
       <r>     4.8221     0.0000    36.0000 </r>
       <r>     4.8931     0.0000    36.0000 </r>
       <r>     4.9641     1.3761    36.1090 </r>
       <r>     5.0351     3.3125    36.2494 </r>
       <r>     5.1061     6.9631    36.6162 </r>
       <r>     5.1772    10.9337    37.2458 </r>
       <r>     5.2482    13.8896    38.1472 </r>
       <r>     5.3192     6.3917    39.3453 </r>
       <r>     5.3902     1.8534    39.5311 </r>
       <r>     5.4612     4.3062    39.6769 </r>
       <r>     5.5322    15.0880    40.2919 </r>
       <r>     5.6032    10.2671    41.1505 </r>
       <r>     5.6742     7.7384    41.7419 </r>
       <r>     5.7452     7.2516    42.2753 </r>
       <r>     5.8162     7.8278    42.8578 </r>
       <r>     5.8872     3.1263    43.2028 </r>
       <r>     5.9582     2.5013    43.3998 </r>
       <r>     6.0292     2.0358    43.5606 </r>
       <r>     6.1002     1.7299    43.6928 </r>
       <r>     6.1712     1.8751    43.8120 </r>
       <r>     6.2422     1.0817    43.9166 </r>
       <r>     6.3133     0.5926    43.9756 </r>
       <r>     6.3843     0.0000    44.0000 </r>
       <r>     6.4553     0.0000    44.0000 </r>
       <r>     6.5263     0.0000    44.0000 </r>
       <r>     6.5973     0.0000    44.0000 </r>
       <r>     6.6683     0.0000    44.0000 </r>
       <r>     6.7393     0.0000    44.0000 </r>
       <r>     6.8103     0.0000    44.0000 </r>
       <r>     6.8813     0.0000    44.0000 </r>
       <r>     6.9523     0.0000    44.0000 </r>
       <r>     7.0233     0.0000    44.0000 </r>
       <r>     7.0943     0.0000    44.0000 </r>
       <r>     7.1653     0.0000    44.0000 </r>
       <r>     7.2363     0.0000    44.0000 </r>
       <r>     7.3073     0.0000    44.0000 </r>
       <r>     7.3784     0.0000    44.0000 </r>
       <r>     7.4494     0.0000    44.0000 </r>
       <r>     7.5204     0.0000    44.0000 </r>
       <r>     7.5914     0.0000    44.0000 </r>
       <r>     7.6624     0.0000    44.0000 </r>
       <r>     7.7334     0.0000    44.0000 </r>
       <r>     7.8044     0.0000    44.0000 </r>
       <r>     7.8754     0.0000    44.0000 </r>
       <r>     7.9464     0.0000    44.0000 </r>
       <r>     8.0174     0.0000    44.0000 </r>
       <r>     8.0884     0.0000    44.0000 </r>
       <r>     8.1594     0.0000    44.0000 </r>
       <r>     8.2304     0.0000    44.0000 </r>
       <r>     8.3014     0.0000    44.0000 </r>
       <r>     8.3724     0.0000    44.0000 </r>
      </set>
     </set>
    </array>
   </total>
  </dos>
 </calculation>
 <structure name="finalpos" >
  <crystal>
   <varray name="basis" >
    <v>       3.19031573       0.00000000       0.00000000 </v>
    <v>      -1.59515786       2.76289447       0.00000000 </v>
    <v>       0.00000000       0.00000000      14.87900430 </v>
   </varray>
   <i name="volume">    131.15106795 </i>
   <varray name="rec_basis" >
    <v>       0.31344860       0.18096963       0.00000000 </v>
    <v>       0.00000000       0.36193927       0.00000000 </v>
    <v>       0.00000000       0.00000000       0.06720880 </v>
   </varray>
  </crystal>
  <varray name="positions" >
   <v>       0.33333300       0.66666700       0.25000000 </v>
   <v>       0.66666700       0.33333300       0.75000000 </v>
   <v>       0.33333300       0.66666700       0.85517400 </v>
   <v>       0.66666700       0.33333300       0.14482600 </v>
   <v>       0.66666600       0.33333300       0.35517400 </v>
   <v>       0.33333400       0.66666700       0.64482600 </v>
  </varray>
 </structure>
</modeling>
