unknown system                          
   1.00000000000000     
     3.192274    0.000000    0.000000
    -1.596137    2.764590    0.000000
     0.000000    0.000000   13.281549
   Mo   S 
     2     4
Direct
  0.333333  0.666667  0.250000
  0.666667  0.333333  0.750000
  0.333333  0.666667  0.867436
  0.666667  0.333333  0.132564
  0.666666  0.333333  0.367436
  0.333334  0.666667  0.632564
 
   36   36  140
 0.92770     0.93790     0.96859      1.0201      1.0927      1.1867      1.3019      1.4375      1.5918      1.7619    
  1.9435      2.1311      2.3176      2.4952      2.6556      2.7907      2.8931      2.9570      2.9787      2.9570    
  2.8930      2.7906      2.6555      2.4951      2.3174      2.1309      1.9434      1.7618      1.5917      1.4374    
  1.3018      1.1866      1.0927      1.0200     0.96857     0.93789     0.93789     0.93789     0.95834     0.99947    
  1.0616      1.1452      1.2503      1.3764      1.5223      1.6857      1.8631      2.0493      2.2382      2.4222    
  2.5932      2.7428      2.8630      2.9473      2.9907      2.9907      2.9472      2.8630      2.7427      2.5931    
  2.4221      2.2381      2.0492      1.8629      1.6856      1.5222      1.3763      1.2502      1.1452      1.0616    
 0.99945     0.95833     0.96857     0.95834     0.96858     0.99947      1.0514      1.1248      1.2201      1.3371    
  1.4750      1.6321      1.8054      1.9905      2.1817      2.3719      2.5532      2.7171      2.8551      2.9599    
  3.0253      3.0475      3.0252      2.9598      2.8551      2.7170      2.5531      2.3718      2.1816      1.9904    
  1.8053      1.6320      1.4750      1.3370      1.2200      1.1248      1.0514     0.99945      1.0200     0.99945    
 0.99946      1.0201      1.0616      1.1248      1.2102      1.3180      1.4478      1.5984      1.7674      1.9511    
  2.1442      2.3402      2.5315      2.7094      2.8652      2.9907      3.0786      3.1240      3.1240      3.0786    
  2.9906      2.8652      2.7093      2.5314      2.3401      2.1441      1.9510      1.7674      1.5984      1.4477    
  1.3179      1.2101      1.1248      1.0616      1.0927      1.0616      1.0514      1.0616      1.0927      1.1452    
  1.2201      1.3180      1.4389      1.5823      1.7462      1.9274      2.1215      2.3224      2.5228      2.7142    
  2.8875      3.0337      3.1448      3.2142      3.2378      3.2142      3.1448      3.0337      2.8874      2.7141    
  2.5227      2.3223      2.1214      1.9273      1.7461      1.5822      1.4389      1.3179      1.2200      1.1452    
  1.1866      1.1452      1.1248      1.1248      1.1452      1.1867      1.2503      1.3371      1.4478      1.5823    
  1.7393      1.9165      2.1097      2.3138      2.5217      2.7252      2.9150      3.0817      3.2160      3.3104    
  3.3590      3.3590      3.3104      3.2160      3.0816      2.9150      2.7251      2.5216      2.3137      2.1097    
  1.9164      1.7393      1.5822      1.4477      1.3370      1.2502      1.3018      1.2502      1.2200      1.2101    
  1.2201      1.2502      1.3019      1.3764      1.4750      1.5984      1.7462      1.9165      2.1062      2.3106    
  2.5233      2.7365      2.9409      3.1267      3.2838      3.4033      3.4781      3.5036      3.4781      3.4033    
  3.2837      3.1266      2.9409      2.7364      2.5232      2.3105      2.1061      1.9164      1.7461      1.5984    
  1.4750      1.3763      1.4374      1.3763      1.3370      1.3179      1.3179      1.3371      1.3763      1.4375    
  1.5223      1.6321      1.7674      1.9274      2.1097      2.3106      2.5243      2.7434      2.9592      3.1614    
  3.3395      3.4835      3.5848      3.6371      3.6371      3.5848      3.4835      3.3395      3.1613      2.9591    
  2.7434      2.5242      2.3105      2.1097      1.9273      1.7673      1.6320      1.5222      1.5917      1.5222    
  1.4750      1.4478      1.4389      1.4478      1.4750      1.5223      1.5918      1.6857      1.8053      1.9510    
  2.1215      2.3138      2.5233      2.7434      2.9657      3.1803      3.3762      3.5425      3.6694      3.7489    
  3.7760      3.7489      3.6694      3.5425      3.3761      3.1802      2.9657      2.7434      2.5232      2.3137    
  2.1214      1.9510      1.8053      1.6856      1.7618      1.6856      1.6321      1.5984      1.5823      1.5823    
  1.5984      1.6321      1.6857      1.7619      1.8630      1.9904      2.1441      2.3224      2.5217      2.7365    
  2.9592      3.1803      3.3889      3.5737      3.7237      3.8294      3.8841      3.8841      3.8294      3.7237    
  3.5737      3.3889      3.1802      2.9591      2.7364      2.5216      2.3223      2.1441      1.9904      1.8630    
  1.9434      1.8630      1.8053      1.7674      1.7461      1.7393      1.7461      1.7674      1.8054      1.8630    
  1.9435      2.0493      2.1816      2.3401      2.5227      2.7251      2.9409      3.1614      3.3762      3.5737    
  3.7424      3.8716      3.9527      3.9804      3.9527      3.8716      3.7424      3.5737      3.3761      3.1613    
  2.9408      2.7251      2.5227      2.3401      2.1815      2.0492      2.1309      2.0492      1.9904      1.9510    
  1.9274      1.9164      1.9164      1.9274      1.9510      1.9904      2.0493      2.1310      2.2382      2.3719    
  2.5314      2.7141      2.9150      3.1266      3.3395      3.5425      3.7237      3.8716      3.9763      4.0305    
  4.0305      3.9763      3.8716      3.7237      3.5425      3.3395      3.1266      2.9149      2.7141      2.5314    
  2.3718      2.2381      2.3174      2.2381      2.1816      2.1441      2.1214      2.1097      2.1061      2.1097    
  2.1215      2.1441      2.1816      2.2381      2.3175      2.4222      2.5532      2.7093      2.8874      3.0816    
  3.2837      3.4835      3.6694      3.8294      3.9528      4.0305      4.0571      4.0305      3.9527      3.8294    
  3.6694      3.4835      3.2837      3.0816      2.8874      2.7093      2.5531      2.4221      2.4950      2.4221    
  2.3718      2.3401      2.3223      2.3138      2.3105      2.3105      2.3138      2.3224      2.3402      2.3719    
  2.4222      2.4951      2.5932      2.7170      2.8652      3.0337      3.2160      3.4033      3.5848      3.7489    
  3.8841      3.9804      4.0305      4.0306      3.9804      3.8841      3.7489      3.5848      3.4033      3.2160    
  3.0337      2.8652      2.7170      2.5931      2.6555      2.5931      2.5531      2.5314      2.5227      2.5216    
  2.5233      2.5242      2.5233      2.5217      2.5228      2.5315      2.5532      2.5932      2.6555      2.7427    
  2.8551      2.9906      3.1447      3.3103      3.4781      3.6371      3.7760      3.8841      3.9527      3.9763    
  3.9528      3.8841      3.7760      3.6371      3.4781      3.3104      3.1447      2.9906      2.8551      2.7427    
  2.7906      2.7427      2.7170      2.7093      2.7141      2.7251      2.7365      2.7434      2.7434      2.7365    
  2.7252      2.7142      2.7094      2.7171      2.7428      2.7906      2.8630      2.9598      3.0786      3.2142    
  3.3590      3.5035      3.6371      3.7489      3.8294      3.8716      3.8716      3.8294      3.7489      3.6371    
  3.5036      3.3590      3.2142      3.0786      2.9598      2.8630      2.8930      2.8630      2.8551      2.8652    
  2.8874      2.9150      2.9409      2.9592      2.9657      2.9592      2.9409      2.9150      2.8875      2.8653    
  2.8552      2.8630      2.8930      2.9472      3.0252      3.1239      3.2378      3.3590      3.4781      3.5848    
  3.6694      3.7237      3.7424      3.7237      3.6694      3.5848      3.4781      3.3590      3.2378      3.1239    
  3.0252      2.9473      2.9570      2.9472      2.9598      2.9906      3.0337      3.0816      3.1266      3.1614    
  3.1803      3.1803      3.1614      3.1267      3.0817      3.0337      2.9907      2.9599      2.9473      2.9570    
  2.9907      3.0475      3.1239      3.2141      3.3103      3.4033      3.4835      3.5425      3.5737      3.5737    
  3.5425      3.4835      3.4033      3.3104      3.2142      3.1240      3.0475      2.9907      2.9788      2.9907    
  3.0252      3.0786      3.1448      3.2160      3.2838      3.3395      3.3762      3.3890      3.3762      3.3396    
  3.2838      3.2161      3.1448      3.0787      3.0253      2.9907      2.9788      2.9907      3.0252      3.0786    
  3.1447      3.2160      3.2837      3.3395      3.3762      3.3890      3.3762      3.3395      3.2838      3.2160    
  3.1448      3.0786      3.0253      2.9907      2.9570      2.9907      3.0475      3.1239      3.2142      3.3104    
  3.4033      3.4835      3.5425      3.5738      3.5738      3.5425      3.4836      3.4034      3.3104      3.2143    
  3.1240      3.0475      2.9907      2.9570      2.9473      2.9598      2.9906      3.0337      3.0816      3.1266    
  3.1614      3.1803      3.1803      3.1614      3.1266      3.0817      3.0337      2.9907      2.9599      2.9473    
  2.8931      2.9473      3.0253      3.1240      3.2378      3.3591      3.4781      3.5849      3.6694      3.7237    
  3.7425      3.7237      3.6694      3.5849      3.4782      3.3591      3.2379      3.1240      3.0253      2.9473    
  2.8930      2.8630      2.8551      2.8652      2.8874      2.9150      2.9409      2.9592      2.9657      2.9592    
  2.9409      2.9150      2.8875      2.8653      2.8551      2.8630      2.7907      2.8630      2.9599      3.0786    
  3.2142      3.3591      3.5036      3.6372      3.7490      3.8295      3.8717      3.8716      3.8295      3.7489    
  3.6372      3.5036      3.3591      3.2143      3.0787      2.9599      2.8630      2.7906      2.7427      2.7170    
  2.7094      2.7141      2.7252      2.7365      2.7434      2.7434      2.7365      2.7252      2.7142      2.7094    
  2.7171      2.7428      2.6556      2.7428      2.8552      2.9907      3.1448      3.3104      3.4782      3.6372    
  3.7760      3.8842      3.9528      3.9764      3.9528      3.8841      3.7760      3.6372      3.4782      3.3104    
  3.1449      2.9907      2.8551      2.7427      2.6555      2.5931      2.5531      2.5314      2.5228      2.5217    
  2.5233      2.5242      2.5233      2.5217      2.5228      2.5315      2.5532      2.5932      2.4952      2.5932    
  2.7171      2.8653      3.0337      3.2161      3.4034      3.5849      3.7489      3.8841      3.9805      4.0306    
  4.0306      3.9805      3.8842      3.7489      3.5849      3.4033      3.2161      3.0338      2.8653      2.7171    
  2.5932      2.4951      2.4222      2.3718      2.3402      2.3224      2.3138      2.3106      2.3106      2.3138    
  2.3224      2.3402      2.3719      2.4223      2.3176      2.4222      2.5532      2.7094      2.8875      3.0817    
  3.2838      3.4836      3.6694      3.8295      3.9528      4.0306      4.0572      4.0306      3.9528      3.8295    
  3.6694      3.4836      3.2838      3.0817      2.8875      2.7094      2.5532      2.4222      2.3175      2.2381    
  2.1816      2.1441      2.1215      2.1097      2.1062      2.1098      2.1215      2.1442      2.1817      2.2382    
  2.1311      2.2382      2.3719      2.5315      2.7142      2.9151      3.1267      3.3396      3.5426      3.7238    
  3.8716      3.9764      4.0306      4.0306      3.9763      3.8717      3.7238      3.5425      3.3395      3.1267    
  2.9150      2.7142      2.5315      2.3719      2.2382      2.1310      2.0493      1.9904      1.9510      1.9274    
  1.9164      1.9165      1.9274      1.9511      1.9905      2.0493      1.9436      2.0493      2.1817      2.3402    
  2.5228      2.7252      2.9410      3.1614      3.3762      3.5738      3.7425      3.8717      3.9528      3.9805    
  3.9528      3.8716      3.7425      3.5738      3.3762      3.1614      2.9409      2.7252      2.5228      2.3402    
  2.1816      2.0493      1.9435      1.8630      1.8054      1.7674      1.7461      1.7393      1.7462      1.7674    
  1.8054      1.8631      1.7619      1.8631      1.9905      2.1442      2.3225      2.5218      2.7365      2.9592    
  3.1803      3.3890      3.5738      3.7238      3.8295      3.8842      3.8842      3.8295      3.7237      3.5738    
  3.3890      3.1803      2.9592      2.7365      2.5217      2.3224      2.1441      1.9904      1.8630      1.7619    
  1.6857      1.6321      1.5984      1.5823      1.5823      1.5985      1.6321      1.6857      1.5918      1.6857    
  1.8054      1.9511      2.1215      2.3139      2.5234      2.7435      2.9658      3.1803      3.3762      3.5425    
  3.6694      3.7490      3.7761      3.7490      3.6694      3.5425      3.3762      3.1803      2.9657      2.7434    
  2.5233      2.3138      2.1215      1.9510      1.8053      1.6857      1.5918      1.5223      1.4750      1.4478    
  1.4389      1.4478      1.4750      1.5223      1.4375      1.5223      1.6322      1.7675      1.9274      2.1098    
  2.3106      2.5243      2.7435      2.9592      3.1614      3.3396      3.4836      3.5849      3.6372      3.6372    
  3.5849      3.4836      3.3395      3.1614      2.9591      2.7434      2.5242      2.3105      2.1097      1.9274    
  1.7674      1.6321      1.5223      1.4375      1.3764      1.3371      1.3180      1.3180      1.3371      1.3764    
  1.3019      1.3764      1.4751      1.5985      1.7462      1.9165      2.1062      2.3106      2.5234      2.7365    
  2.9410      3.1267      3.2838      3.4033      3.4781      3.5036      3.4781      3.4033      3.2838      3.1266    
  2.9409      2.7364      2.5233      2.3105      2.1061      1.9164      1.7461      1.5984      1.4750      1.3763    
  1.3019      1.2503      1.2201      1.2102      1.2201      1.2503      1.1867      1.2503      1.3371      1.4478    
  1.5823      1.7394      1.9165      2.1098      2.3138      2.5217      2.7252      2.9151      3.0817      3.2161    
  3.3104      3.3591      3.3591      3.3104      3.2160      3.0816      2.9150      2.7251      2.5217      2.3137    
  2.1097      1.9164      1.7393      1.5823      1.4478      1.3371      1.2502      1.1867      1.1452      1.1248    
  1.1248      1.1452      1.0927      1.1452      1.2201      1.3180      1.4390      1.5823      1.7462      1.9275    
  2.1215      2.3224      2.5228      2.7142      2.8875      3.0338      3.1448      3.2142      3.2378      3.2142    
  3.1448      3.0337      2.8874      2.7141      2.5227      2.3224      2.1214      1.9273      1.7461      1.5823    
  1.4389      1.3179      1.2201      1.1452      1.0927      1.0616      1.0514      1.0616      1.0201      1.0617    
  1.1248      1.2102      1.3180      1.4478      1.5985      1.7675      1.9511      2.1442      2.3402      2.5315    
  2.7094      2.8653      2.9907      3.0786      3.1240      3.1240      3.0786      2.9906      2.8652      2.7093    
  2.5314      2.3401      2.1441      1.9510      1.7674      1.5984      1.4478      1.3179      1.2101      1.1248    
  1.0616      1.0201     0.99947     0.99947     0.96859     0.99948      1.0514      1.1248      1.2201      1.3371    
  1.4751      1.6321      1.8054      1.9905      2.1817      2.3719      2.5532      2.7171      2.8551      2.9599    
  3.0253      3.0475      3.0252      2.9598      2.8551      2.7170      2.5531      2.3718      2.1816      1.9904    
  1.8053      1.6321      1.4750      1.3370      1.2200      1.1248      1.0514     0.99946     0.96858     0.95835    
 0.93790     0.95835     0.99948      1.0617      1.1452      1.2503      1.3764      1.5223      1.6857      1.8631    
  2.0493      2.2382      2.4223      2.5932      2.7428      2.8630      2.9473      2.9907      2.9907      2.9473    
  2.8630      2.7427      2.5931      2.4221      2.2381      2.0492      1.8630      1.6856      1.5222      1.3763    
  1.2502      1.1452      1.0616     0.99945     0.95834     0.93789     0.94733     0.95794     0.98992      1.0437    
  1.1198      1.2185      1.3399      1.4830      1.6460      1.8257      2.0177      2.2160      2.4132      2.6012    
  2.7710      2.9140      3.0225      3.0902      3.1132      3.0902      3.0224      2.9139      2.7709      2.6011    
  2.4131      2.2159      2.0176      1.8256      1.6459      1.4829      1.3398      1.2185      1.1197      1.0437    
 0.98990     0.95793     0.95793     0.95793     0.98044      1.0259      1.0948      1.1880      1.3057      1.4474    
  1.6117      1.7959      1.9960      2.2062      2.4194      2.6273      2.8206      2.9897      3.1259      3.2213    
  3.2705      3.2705      3.2212      3.1258      2.9896      2.8205      2.6272      2.4193      2.2060      1.9958    
  1.7958      1.6116      1.4473      1.3056      1.1880      1.0948      1.0258     0.98043     0.98990     0.97801    
 0.98991      1.0259      1.0866      1.1730      1.2857      1.4248      1.5893      1.7770      1.9844      2.2060    
  2.4351      2.6633      2.8809      3.0779      3.2441      3.3702      3.4491      3.4759      3.4491      3.3702    
  3.2440      3.0778      2.8808      2.6631      2.4350      2.2059      1.9843      1.7769      1.5892      1.4247    
  1.2856      1.1729      1.0866      1.0258      1.0437      1.0184      1.0184      1.0437      1.0948      1.1730    
  1.2791      1.4139      1.5768      1.7664      1.9794      2.2111      2.4550      2.7030      2.9452      3.1711    
  3.3692      3.5289      3.6411      3.6990      3.6990      3.6411      3.5289      3.3691      3.1709      2.9451    
  2.7028      2.4549      2.2110      1.9793      1.7663      1.5768      1.4138      1.2791      1.1729      1.0948    
  1.1197      1.0796      1.0663      1.0796      1.1198      1.1880      1.2857      1.4139      1.5729      1.7617    
  1.9779      2.2172      2.4739      2.7400      3.0059      3.2604      3.4915      3.6871      3.8358      3.9290    
  3.9607      3.9290      3.8358      3.6870      3.4915      3.2603      3.0058      2.7399      2.4738      2.2172    
  1.9778      1.7616      1.5728      1.4138      1.2856      1.1880      1.2185      1.1618      1.1339      1.1339    
  1.1618      1.2185      1.3056      1.4248      1.5768      1.7617      1.9776      2.2212      2.4873      2.7685    
  3.0555      3.3372      3.6009      3.8330      4.0208      4.1529      4.2212      4.2212      4.1529      4.0208    
  3.8330      3.6008      3.3371      3.0554      2.7683      2.4872      2.2211      1.9775      1.7616      1.5768    
  1.4247      1.3056      1.3398      1.2652      1.2215      1.2071      1.2215      1.2652      1.3399      1.4473    
  1.5893      1.7664      1.9779      2.2212      2.4921      2.7839      3.0880      3.3935      3.6873      3.9552    
  4.1826      4.3562      4.4650      4.5021      4.4650      4.3561      4.1826      3.9551      3.6872      3.3934    
  3.0879      2.7838      2.4920      2.2211      1.9778      1.7663      1.5892      1.4473      1.4829      1.3894    
  1.3289      1.2993      1.2993      1.3289      1.3895      1.4829      1.6116      1.7770      1.9794      2.2172    
  2.4872      2.7839      3.0993      3.4232      3.7427      4.0431      4.3088      4.5243      4.6762      4.7548    
  4.7548      4.6762      4.5242      4.3087      4.0431      3.7426      3.4231      3.0992      2.7838      2.4872    
  2.2172      1.9793      1.7770      1.6116      1.6459      1.5332      1.4555      1.4102      1.3953      1.4102    
  1.4555      1.5333      1.6459      1.7958      1.9843      2.2110      2.4739      2.7684      3.0880      3.4232    
  3.7618      4.0892      4.3890      4.6443      4.8397      4.9624      5.0043      4.9624      4.8397      4.6443    
  4.3889      4.0891      3.7617      3.4231      3.0879      2.7684      2.4738      2.2110      1.9843      1.7958    
  1.8256      1.6943      1.5996      1.5388      1.5091      1.5091      1.5388      1.5997      1.6944      1.8257    
  1.9959      2.2059      2.4549      2.7399      3.0555      3.3934      3.7427      4.0892      4.4165      4.7069    
  4.9431      5.1100      5.1965      5.1965      5.1101      4.9431      4.7069      4.4165      4.0891      3.7426    
  3.3934      3.0554      2.7399      2.4549      2.2059      1.9958      2.0176      1.8692      1.7586      1.6831    
  1.6393      1.6250      1.6393      1.6831      1.7587      1.8692      2.0177      2.2061      2.4350      2.7029    
  3.0058      3.3372      3.6873      4.0431      4.3890      4.7069      4.9786      5.1868      5.3177      5.3625    
  5.3178      5.1868      4.9785      4.7069      4.3890      4.0431      3.6872      3.3371      3.0058      2.7028    
  2.4350      2.2060      2.2159      2.0529      1.9286      1.8400      1.7836      1.7563      1.7563      1.7836    
  1.8401      1.9287      2.0530      2.2159      2.4194      2.6632      2.9452      3.2604      3.6008      3.9551    
  4.3087      4.6443      4.9432      5.1868      5.3592      5.4486      5.4486      5.3592      5.1868      4.9431    
  4.6443      4.3087      3.9551      3.6008      3.2603      2.9451      2.6631      2.4193      2.4131      2.2393    
  2.1043      2.0053      1.9385      1.9003      1.8879      1.9003      1.9386      2.0054      2.1044      2.2393    
  2.4132      2.6272      2.8809      3.1710      3.4915      3.8330      4.1826      4.5242      4.8397      5.1101    
  5.3178      5.4486      5.4933      5.4486      5.3178      5.1100      4.8397      4.5242      4.1826      3.8330    
  3.4915      3.1710      2.8808      2.6272      2.6010      2.4210      2.2793      2.1734      2.0993      2.0529    
  2.0308      2.0308      2.0530      2.0994      2.1734      2.2794      2.4210      2.6011      2.8205      3.0779    
  3.3691      3.6870      4.0207      4.3561      4.6762      4.9624      5.1965      5.3625      5.4486      5.4486    
  5.3625      5.1965      4.9624      4.6762      4.3562      4.0207      3.6870      3.3691      3.0778      2.8204    
  2.7709      2.5898      2.4461      2.3374      2.2599      2.2090      2.1805      2.1714      2.1805      2.2090    
  2.2599      2.3375      2.4462      2.5899      2.7709      2.9897      3.2440      3.5289      3.8358      4.1529    
  4.4650      4.7548      5.0043      5.1965      5.3178      5.3592      5.3178      5.1965      5.0042      4.7548    
  4.4650      4.1529      3.8358      3.5289      3.2440      2.9896      2.9139      2.7375      2.5969      2.4901    
  2.4133      2.3620      2.3312      2.3170      2.3170      2.3313      2.3621      2.4134      2.4901      2.5970    
  2.7376      2.9140      3.1258      3.3702      3.6410      3.9290      4.2211      4.5021      4.7548      4.9624    
  5.1100      5.1868      5.1868      5.1101      4.9624      4.7548      4.5021      4.2212      3.9290      3.6411    
  3.3702      3.1258      3.0224      2.8563      2.7239      2.6238      2.5523      2.5049      2.4761      2.4612    
  2.4566      2.4612      2.4762      2.5050      2.5524      2.6238      2.7240      2.8564      3.0224      3.2212    
  3.4490      3.6989      3.9607      4.2211      4.4650      4.6762      4.8397      4.9431      4.9785      4.9431    
  4.8397      4.6762      4.4650      4.2212      3.9607      3.6989      3.4491      3.2213      3.0902      2.9396    
  2.8203      2.7313      2.6696      2.6303      2.6079      2.5968      2.5926      2.5925      2.5968      2.6079    
  2.6303      2.6696      2.7314      2.8204      2.9397      3.0902      3.2704      3.4759      3.6989      3.9289    
  4.1529      4.3562      4.5242      4.6443      4.7069      4.7069      4.6443      4.5242      4.3562      4.1529    
  3.9290      3.6990      3.4759      3.2705      3.1133      2.9825      2.8805      2.8067      2.7585      2.7313    
  2.7193      2.7165      2.7173      2.7180      2.7173      2.7165      2.7194      2.7314      2.7586      2.8068    
  2.8805      2.9825      3.1132      3.2704      3.4490      3.6410      3.8358      4.0207      4.1826      4.3088    
  4.3890      4.4165      4.3890      4.3088      4.1826      4.0208      3.8359      3.6411      3.4491      3.2705    
  3.0902      2.9825      2.9010      2.8456      2.8141      2.8022      2.8041      2.8132      2.8235      2.8300    
  2.8300      2.8235      2.8133      2.8041      2.8022      2.8142      2.8456      2.9010      2.9825      3.0902    
  3.2213      3.3702      3.5288      3.6870      3.8330      3.9551      4.0431      4.0892      4.0892      4.0432    
  3.9552      3.8330      3.6871      3.5289      3.3702      3.2213      3.0225      2.9397      2.8805      2.8456    
  2.8330      2.8387      2.8570      2.8813      2.9046      2.9213      2.9273      2.9213      2.9046      2.8813    
  2.8571      2.8388      2.8331      2.8456      2.8805      2.9396      3.0224      3.1258      3.2440      3.3691    
  3.4915      3.6008      3.6872      3.7427      3.7618      3.7427      3.6873      3.6008      3.4915      3.3692    
  3.2441      3.1259      2.9140      2.8564      2.8204      2.8068      2.8141      2.8387      2.8751      2.9164    
  2.9555      2.9859      3.0024      3.0024      2.9859      2.9555      2.9164      2.8751      2.8388      2.8142    
  2.8068      2.8204      2.8564      2.9140      2.9897      3.0779      3.1710      3.2604      3.3372      3.3934    
  3.4232      3.4232      3.3935      3.3372      3.2604      3.1711      3.0779      2.9897      2.7710      2.7376    
  2.7240      2.7314      2.7586      2.8022      2.8571      2.9164      2.9728      3.0193      3.0499      3.0605    
  3.0498      3.0193      2.9728      2.9164      2.8571      2.8022      2.7586      2.7314      2.7240      2.7376    
  2.7709      2.8205      2.8809      2.9452      3.0058      3.0555      3.0880      3.0993      3.0880      3.0555    
  3.0059      2.9452      2.8810      2.8206      2.6012      2.5899      2.5970      2.6238      2.6696      2.7314    
  2.8041      2.8813      2.9555      3.0193      3.0660      3.0907      3.0907      3.0660      3.0193      2.9555    
  2.8813      2.8041      2.7314      2.6696      2.6238      2.5970      2.5899      2.6011      2.6272      2.6632    
  2.7029      2.7399      2.7684      2.7839      2.7839      2.7685      2.7400      2.7030      2.6633      2.6273    
  2.4132      2.4211      2.4462      2.4902      2.5524      2.6303      2.7194      2.8133      2.9046      2.9859    
  3.0498      3.0907      3.1048      3.0907      3.0498      2.9859      2.9046      2.8132      2.7194      2.6303    
  2.5524      2.4901      2.4462      2.4210      2.4132      2.4193      2.4350      2.4549      2.4739      2.4872    
  2.4921      2.4873      2.4739      2.4550      2.4351      2.4194      2.2160      2.2394      2.2794      2.3375    
  2.4135      2.5050      2.6080      2.7165      2.8235      2.9213      3.0024      3.0605      3.0907      3.0907    
  3.0605      3.0024      2.9213      2.8235      2.7165      2.6079      2.5049      2.4134      2.3375      2.2794    
  2.2394      2.2159      2.2061      2.2059      2.2110      2.2172      2.2212      2.2212      2.2173      2.2111    
  2.2060      2.2062      2.0177      2.0530      2.1045      2.1735      2.2600      2.3621      2.4762      2.5969    
  2.7173      2.8300      2.9274      3.0025      3.0498      3.0660      3.0498      3.0024      2.9273      2.8300    
  2.7173      2.5968      2.4762      2.3621      2.2599      2.1734      2.1044      2.0530      2.0177      1.9959    
  1.9843      1.9793      1.9778      1.9776      1.9779      1.9794      1.9844      1.9960      1.8257      1.8693    
  1.9287      2.0055      2.0994      2.2091      2.3313      2.4613      2.5926      2.7180      2.8300      2.9213    
  2.9859      3.0193      3.0193      2.9859      2.9213      2.8300      2.7180      2.5925      2.4612      2.3313    
  2.2090      2.0993      2.0054      1.9287      1.8692      1.8257      1.7959      1.7770      1.7664      1.7617    
  1.7617      1.7664      1.7770      1.7959      1.6460      1.6944      1.7588      1.8401      1.9387      2.0531    
  2.1806      2.3171      2.4567      2.5926      2.7173      2.8235      2.9046      2.9555      2.9728      2.9555    
  2.9046      2.8235      2.7173      2.5925      2.4566      2.3170      2.1805      2.0530      1.9386      1.8401    
  1.7587      1.6943      1.6459      1.6116      1.5893      1.5768      1.5729      1.5769      1.5893      1.6117    
  1.4830      1.5333      1.5997      1.6832      1.7837      1.9004      2.0309      2.1715      2.3171      2.4613    
  2.5969      2.7165      2.8132      2.8813      2.9164      2.9164      2.8813      2.8132      2.7165      2.5968    
  2.4612      2.3170      2.1714      2.0308      1.9003      1.7836      1.6831      1.5996      1.5332      1.4829    
  1.4473      1.4248      1.4139      1.4139      1.4248      1.4474      1.3399      1.3895      1.4556      1.5388    
  1.6394      1.7564      1.8879      2.0309      2.1806      2.3313      2.4762      2.6080      2.7194      2.8041    
  2.8570      2.8751      2.8570      2.8041      2.7194      2.6079      2.4761      2.3312      2.1805      2.0308    
  1.8879      1.7563      1.6393      1.5388      1.4555      1.3895      1.3399      1.3056      1.2857      1.2791    
  1.2857      1.3057      1.2185      1.2653      1.3290      1.4103      1.5092      1.6251      1.7564      1.9004    
  2.0530      2.2091      2.3621      2.5050      2.6304      2.7314      2.8022      2.8387      2.8387      2.8022    
  2.7313      2.6303      2.5049      2.3620      2.2090      2.0529      1.9003      1.7563      1.6250      1.5091    