unknown system                          
   1.00000000000000     
     3.192274    0.000000    0.000000
    -1.596137    2.764590    0.000000
     0.000000    0.000000   13.281549
   Mo   S 
     2     4
Direct
  0.333333  0.666667  0.250000
  0.666667  0.333333  0.750000
  0.333333  0.666667  0.867436
  0.666667  0.333333  0.132564
  0.666666  0.333333  0.367436
  0.333334  0.666667  0.632564
 
   36   36  140
 0.92770098929E+00 0.93789831724E+00 0.96859202286E+00 0.10200734081E+01 0.10926959380E+01
 0.11866849472E+01 0.13018914879E+01 0.14375152372E+01 0.15918260703E+01 0.17619184913E+01
 0.19435416097E+01 0.21310543826E+01 0.23175500735E+01 0.24951704197E+01 0.26555961804E+01
 0.27906687564E+01 0.28930745700E+01 0.29570103391E+01 0.29787427954E+01 0.29569834306E+01
 0.28930209089E+01 0.27905897143E+01 0.26554955452E+01 0.24950546483E+01 0.23174272015E+01
 0.21309321611E+01 0.19434259191E+01 0.17618127886E+01 0.15917318916E+01 0.14374331802E+01
 0.13018219830E+01 0.11866284487E+01 0.10926526229E+01 0.10200427915E+01 0.96857291179E+00
 0.93788925910E+00 0.93788961555E+00 0.93789423094E+00 0.95834481585E+00 0.99947179418E+00
 0.10616473070E+01 0.11452184022E+01 0.12502764820E+01 0.13763867524E+01 0.15223070493E+01
 0.16857262208E+01 0.18630564702E+01 0.20493238485E+01 0.22382039585E+01 0.24222357342E+01
 0.25932201473E+01 0.27427815290E+01 0.28630382374E+01 0.29473010074E+01 0.29907045645E+01
 0.29906866418E+01 0.29472487860E+01 0.28629582502E+01 0.27426857834E+01 0.25931197970E+01
 0.24221340625E+01 0.22380977981E+01 0.20492113077E+01 0.18629414456E+01 0.16856164792E+01
 0.15222102112E+01 0.13763074563E+01 0.12502150166E+01 0.11451716702E+01 0.10616121042E+01
 0.99944703213E+00 0.95833044059E+00 0.96857400000E+00 0.95833591692E+00 0.96858300487E+00
 0.99946790663E+00 0.10513857681E+01 0.11248148494E+01 0.12200836307E+01 0.13370948748E+01
 0.14750407134E+01 0.16321372729E+01 0.18053999781E+01 0.19904881739E+01 0.21816635234E+01
 0.23719066154E+01 0.25532158835E+01 0.27170875523E+01 0.28551474185E+01 0.29598676193E+01
 0.30252683358E+01 0.30475014411E+01 0.30252378014E+01 0.29598069873E+01 0.28550632701E+01
 0.27169914652E+01 0.25531153595E+01 0.23718014717E+01 0.21815523708E+01 0.19903742401E+01
 0.18052896447E+01 0.16320369243E+01 0.14749557130E+01 0.13370275456E+01 0.12200312526E+01
 0.11247729253E+01 0.10513535021E+01 0.99944738848E+00 0.10200441004E+01 0.99945325889E+00
 0.99945705904E+00 0.10200586676E+01 0.10616402018E+01 0.11248129581E+01 0.12101651299E+01
 0.13179566606E+01 0.14478118104E+01 0.15984468697E+01 0.17674435384E+01 0.19510700545E+01
 0.21441780294E+01 0.23402279854E+01 0.25314875777E+01 0.27094190255E+01 0.28652483078E+01
 0.29906747605E+01 0.30786295625E+01 0.31239624943E+01 0.31239559598E+01 0.30786045875E+01
 0.29906230974E+01 0.28651694981E+01 0.27093187003E+01 0.25313716437E+01 0.23401046529E+01
 0.21440597240E+01 0.19509659168E+01 0.17673532098E+01 0.15983664048E+01 0.14477412252E+01
 0.13178972545E+01 0.12101151453E+01 0.11247716163E+01 0.10616111515E+01 0.10926526229E+01
 0.10616190153E+01 0.10513648735E+01 0.10616262736E+01 0.10926742764E+01 0.11452062478E+01
 0.12200789226E+01 0.13179561559E+01 0.14389471089E+01 0.15822982386E+01 0.17461602435E+01
 0.19274079910E+01 0.21215023881E+01 0.23224356079E+01 0.25228256475E+01 0.27142029918E+01
 0.28875011540E+01 0.30337337589E+01 0.31447876078E+01 0.32142046968E+01 0.32378239661E+01
 0.32142017455E+01 0.31447673903E+01 0.30336843383E+01 0.28874209886E+01 0.27140958274E+01
 0.25227006714E+01 0.23223117246E+01 0.21213982001E+01 0.19273249664E+01 0.17460858529E+01
 0.15822254830E+01 0.14388802434E+01 0.13178988578E+01 0.12200301643E+01 0.11451684017E+01
 0.11866253450E+01 0.11451789426E+01 0.11247872769E+01 0.11247888782E+01 0.11451907211E+01
 0.11866552654E+01 0.12502549707E+01 0.13370815207E+01 0.14478080608E+01 0.15823012771E+01
 0.17393446868E+01 0.19164568802E+01 0.21097482649E+01 0.23138123944E+01 0.25217217615E+01
 0.27252047999E+01 0.29150413961E+01 0.30816810385E+01 0.32160418927E+01 0.33103739431E+01
 0.33590297259E+01 0.33590285694E+01 0.33103623328E+01 0.32160078832E+01 0.30816234861E+01
 0.29149634790E+01 0.27251069026E+01 0.25216119322E+01 0.23137098423E+01 0.21096634628E+01
 0.19163800513E+01 0.17392651973E+01 0.15822252914E+01 0.14477456380E+01 0.13370306493E+01
 0.12502115564E+01 0.13018156259E+01 0.12502216958E+01 0.12200493388E+01 0.12101368358E+01
 0.12200539329E+01 0.12502431610E+01 0.13018536072E+01 0.13763501148E+01 0.14750112204E+01
 0.15984350881E+01 0.17461644752E+01 0.19164625556E+01 0.21061690547E+01 0.23105698360E+01
 0.25233168274E+01 0.27364972679E+01 0.29409211016E+01 0.31266518752E+01 0.32837731056E+01
 0.34033051011E+01 0.34781010809E+01 0.35035611121E+01 0.34780904208E+01 0.34032732270E+01
 0.32837219409E+01 0.31265945570E+01 0.29408581363E+01 0.27364183924E+01 0.25232257844E+01
 0.23104823942E+01 0.21060873805E+01 0.19163769474E+01 0.17460794958E+01 0.15983677138E+01
 0.14749631583E+01 0.13763078126E+01 0.14374269598E+01 0.13763129402E+01 0.13370483448E+01
 0.13179248834E+01 0.13179257054E+01 0.13370620805E+01 0.13763492270E+01 0.14374706914E+01
 0.15222548336E+01 0.16320898354E+01 0.17674164260E+01 0.19273991642E+01 0.21097465544E+01
 0.23105702017E+01 0.25242552913E+01 0.27434353588E+01 0.29591714262E+01 0.31613791918E+01
 0.33395212974E+01 0.34835300106E+01 0.35848080325E+01 0.36370978150E+01 0.36370964916E+01
 0.35847922876E+01 0.34834893944E+01 0.33394709624E+01 0.31613333487E+01 0.29591170729E+01
 0.27433581144E+01 0.25241674969E+01 0.23104886144E+01 0.21096665791E+01 0.19273158339E+01
 0.17673456806E+01 0.16320431445E+01 0.15222167877E+01 0.15917318915E+01 0.15222158326E+01
 0.14749757308E+01 0.14477730639E+01 0.14389118748E+01 0.14477766720E+01 0.14750050771E+01
 0.15222679896E+01 0.15917789800E+01 0.16856655566E+01 0.18053398573E+01 0.19510212821E+01
 0.21214641266E+01 0.23137879512E+01 0.25233110752E+01 0.27434401410E+01 0.29657434496E+01
 0.31802744809E+01 0.33761653467E+01 0.35424983132E+01 0.36693639997E+01 0.37488814709E+01
 0.37759802058E+01 0.37488927772E+01 0.36693570691E+01 0.35424657909E+01 0.33761271536E+01
 0.31802318800E+01 0.29656764774E+01 0.27433527708E+01 0.25232321416E+01 0.23137245099E+01
 0.21213982000E+01 0.19509530440E+01 0.18052885566E+01 0.16856276867E+01 0.17618229628E+01
 0.16856249629E+01 0.16320515434E+01 0.15983964359E+01 0.15822618512E+01 0.15822587359E+01
 0.15984081371E+01 0.16320991375E+01 0.16856860197E+01 0.17618709214E+01 0.18629985576E+01
 0.19904263614E+01 0.21441094551E+01 0.23223654341E+01 0.25216733764E+01 0.27364842573E+01
 0.29591783104E+01 0.31802794582E+01 0.33889440132E+01 0.35737379088E+01 0.37236843696E+01
 0.38294030844E+01 0.38840736982E+01 0.38840910766E+01 0.38294278237E+01 0.37236803921E+01
 0.35737123252E+01 0.33889138516E+01 0.31802304903E+01 0.29591006784E+01 0.27364082183E+01
 0.25216252104E+01 0.23223248110E+01 0.21440508586E+01 0.19903640659E+01 0.18629512635E+01
 0.19434428383E+01 0.18629536561E+01 0.18052964349E+01 0.17673741922E+01 0.17461238945E+01
 0.17393050644E+01 0.17461199240E+01 0.17674015380E+01 0.18053566119E+01 0.18630116105E+01
 0.19434923037E+01 0.20492764998E+01 0.21816084924E+01 0.23401499407E+01 0.25227394001E+01
 0.27251446361E+01 0.29408972907E+01 0.31613727717E+01 0.33761640634E+01 0.35737430652E+01
 0.37424291716E+01 0.38715781877E+01 0.39527213256E+01 0.39804120905E+01 0.39527464931E+01
 0.38715863328E+01 0.37424093306E+01 0.35737224994E+01 0.33761440728E+01 0.31613271283E+01
 0.29408348599E+01 0.27251037989E+01 0.25227175907E+01 0.23401059617E+01 0.21815365397E+01
 0.20492116642E+01 0.21309454568E+01 0.20492238629E+01 0.19903755885E+01 0.19509754766E+01
 0.19273599245E+01 0.19164277332E+01 0.19164218214E+01 0.19273684323E+01 0.19510243495E+01
 0.19904376464E+01 0.20492709494E+01 0.21309995611E+01 0.22381643454E+01 0.23718575046E+01
 0.25314113742E+01 0.27141206163E+01 0.29149803456E+01 0.31266115851E+01 0.33394930784E+01
 0.35424925342E+01 0.37237057716E+01 0.38716015080E+01 0.39762792234E+01 0.40305283571E+01
 0.40305367939E+01 0.39762802226E+01 0.38715730371E+01 0.37236772708E+01 0.35424906506E+01
 0.33394904781E+01 0.31265812610E+01 0.29149470795E+01 0.27141062110E+01 0.25313836303E+01
 0.23717881758E+01 0.22380848588E+01 0.23174272016E+01 0.22381051523E+01 0.21815544464E+01
 0.21440637359E+01 0.21214270114E+01 0.21097152858E+01 0.21061396800E+01 0.21097168264E+01
 0.21214651164E+01 0.21441322423E+01 0.21816093610E+01 0.22381445188E+01 0.23174885415E+01
 0.24221921842E+01 0.25531622282E+01 0.27093484709E+01 0.28874338663E+01 0.30816255168E+01
 0.32837212417E+01 0.34834920553E+01 0.36693651298E+01 0.38294394893E+01 0.39527577189E+01
 0.40305434788E+01 0.40571316624E+01 0.40305432787E+01 0.39527295736E+01 0.38293978689E+01
 0.36693570693E+01 0.34835153953E+01 0.32837282978E+01 0.30816068093E+01 0.28874209887E+01
 0.27093371719E+01 0.25531142711E+01 0.24221139255E+01 0.24950406699E+01 0.24221334802E+01
 0.23718096710E+01 0.23401132272E+01 0.23223350091E+01 0.23137581597E+01 0.23105391190E+01
 0.23105391311E+01 0.23137831348E+01 0.23224050426E+01 0.23401907555E+01 0.23718588373E+01
 0.24221777270E+01 0.24951057445E+01 0.25931610855E+01 0.27170201434E+01 0.28651833273E+01
 0.30336836095E+01 0.32159962113E+01 0.34032566078E+01 0.35847776158E+01 0.37488865803E+01
 0.38840975426E+01 0.39804299539E+01 0.40305492810E+01 0.40305556314E+01 0.39804260688E+01
 0.38840669236E+01 0.37488672349E+01 0.35848000461E+01 0.34032872054E+01 0.32159970083E+01
 0.30336732720E+01 0.28651847857E+01 0.27170054436E+01 0.25931054619E+01 0.26554766458E+01
 0.25931138157E+01 0.25531299864E+01 0.25313904492E+01 0.25227209787E+01 0.25216490907E+01
 0.25232784677E+01 0.25242189130E+01 0.25232842847E+01 0.25216976116E+01 0.25228074141E+01
 0.25314668306E+01 0.25531837283E+01 0.25931728232E+01 0.26555363296E+01 0.27427081894E+01
 0.28550690452E+01 0.29906146211E+01 0.31447483565E+01 0.33103379745E+01 0.34780668688E+01
 0.36370801122E+01 0.37759763454E+01 0.38840835640E+01 0.39527388197E+01 0.39762925194E+01
 0.39527571443E+01 0.38840838721E+01 0.37759613063E+01 0.36370902714E+01 0.34781029630E+01
 0.33103592288E+01 0.31447484909E+01 0.29906244065E+01 0.28550832576E+01 0.27426861395E+01
 0.27905773389E+01 0.27426796319E+01 0.27170073916E+01 0.27093439660E+01 0.27141143943E+01
 0.27251297281E+01 0.27364594238E+01 0.27434089665E+01 0.27434039765E+01 0.27364721620E+01
 0.27251900359E+01 0.27141971454E+01 0.27094145419E+01 0.27170743904E+01 0.27427526835E+01
 0.27906231390E+01 0.28629638719E+01 0.29597892158E+01 0.30785716789E+01 0.32141643379E+01
 0.33589970356E+01 0.35035422075E+01 0.36370924871E+01 0.37488849766E+01 0.38294073335E+01
 0.38715758374E+01 0.38715905630E+01 0.38294256336E+01 0.37488806596E+01 0.36370916601E+01
 0.35035734872E+01 0.33590378404E+01 0.32141864580E+01 0.30785909035E+01 0.29598193624E+01
 0.28629709815E+01 0.28930209087E+01 0.28629555265E+01 0.28550736476E+01 0.28651915090E+01
 0.28874371960E+01 0.29149758230E+01 0.29408874614E+01 0.29591670851E+01 0.29657323642E+01
 0.29591602692E+01 0.29409112446E+01 0.29150366914E+01 0.28875043316E+01 0.28652565844E+01
 0.28551523366E+01 0.28630301851E+01 0.28930477775E+01 0.29472410728E+01 0.30252013004E+01
 0.31239035685E+01 0.32377723179E+01 0.33589933900E+01 0.34780857683E+01 0.35848076150E+01
 0.36693651295E+01 0.37236764549E+01 0.37424122524E+01 0.37236902161E+01 0.36693639996E+01
 0.35847982320E+01 0.34781074381E+01 0.33590488504E+01 0.32378239659E+01 0.31239386300E+01
 0.30252367133E+01 0.29472644503E+01 0.29569939729E+01 0.29472498697E+01 0.29598077548E+01
 0.29906341312E+01 0.30336981928E+01 0.30816350453E+01 0.31266203628E+01 0.31613849510E+01
 0.31802952230E+01 0.31802902294E+01 0.31613913115E+01 0.31266605547E+01 0.30816904989E+01
 0.30337484063E+01 0.29906945008E+01 0.29598864595E+01 0.29473100144E+01 0.29570021642E+01
 0.29906696616E+01 0.30474539662E+01 0.31238980900E+01 0.32141414205E+01 0.33103274324E+01
 0.34032811289E+01 0.34835223781E+01 0.35424952875E+01 0.35737325228E+01 0.35737382768E+01
 0.35424972915E+01 0.34835132480E+01 0.34032945588E+01 0.33103875893E+01 0.32142181512E+01
 0.31239532609E+01 0.30474908988E+01 0.29906968277E+01 0.29787572932E+01 0.29906900335E+01
 0.30252299007E+01 0.30786036469E+01 0.31447809559E+01 0.32160291262E+01 0.32837547498E+01
 0.33395265240E+01 0.33761965391E+01 0.33889758093E+01 0.33761976716E+01 0.33395546114E+01
 0.32838066193E+01 0.32160748679E+01 0.31448201607E+01 0.30786613674E+01 0.30252968291E+01
 0.29907250214E+01 0.29787501402E+01 0.29906802039E+01 0.30252157981E+01 0.30785593037E+01
 0.31447149593E+01 0.32159822329E+01 0.32837357397E+01 0.33395063741E+01 0.33761664848E+01
 0.33889541874E+01 0.33761798444E+01 0.33395150770E+01 0.32837522506E+01 0.32160387889E+01
 0.31448021056E+01 0.30786308713E+01 0.30252549261E+01 0.29907049208E+01 0.29570208813E+01
 0.29907081932E+01 0.30474901100E+01 0.31239477722E+01 0.32142170529E+01 0.33103980943E+01
 0.34033189215E+01 0.34835480779E+01 0.35425362113E+01 0.35737766939E+01 0.35737715360E+01
 0.35425419800E+01 0.34835860047E+01 0.34033673634E+01 0.33104339836E+01 0.32142572875E+01
 0.31240065142E+01 0.30475373707E+01 0.29907144792E+01 0.29570021644E+01 0.29472676359E+01
 0.29598121330E+01 0.29906040786E+01 0.30336590886E+01 0.30816162786E+01 0.31266088317E+01
 0.31613622295E+01 0.31802790902E+01 0.31802965870E+01 0.31613959541E+01 0.31266413328E+01
 0.30816673924E+01 0.30337413889E+01 0.29906839937E+01 0.29598570768E+01 0.29472908215E+01
 0.28930745701E+01 0.29473024261E+01 0.30252605198E+01 0.31239542786E+01 0.32378403736E+01
 0.33590747156E+01 0.34781475439E+01 0.35848511303E+01 0.36694229130E+01 0.37237472600E+01
 0.37424637361E+01 0.37237259064E+01 0.36694219013E+01 0.35848817133E+01 0.34781818903E+01
 0.33591074406E+01 0.32378919484E+01 0.31240119926E+01 0.30252823311E+01 0.29472834515E+01
 0.28930477778E+01 0.28629922678E+01 0.28550879445E+01 0.28651812850E+01 0.28874338663E+01
 0.29149830704E+01 0.29408803713E+01 0.29591521155E+01 0.29657434498E+01 0.29591936671E+01
 0.29409274585E+01 0.29150284791E+01 0.28875011540E+01 0.28652630195E+01 0.28551463301E+01
 0.28630218602E+01 0.27906563815E+01 0.28630354800E+01 0.29598686431E+01 0.30786285871E+01
 0.32142198193E+01 0.33590756763E+01 0.35036227460E+01 0.36371541717E+01 0.37489520014E+01
 0.38294974395E+01 0.38716554899E+01 0.38716323770E+01 0.38294613839E+01 0.37489469937E+01
 0.36371718025E+01 0.35036417363E+01 0.33591110863E+01 0.32142802049E+01 0.30786737423E+01
 0.29598635420E+01 0.28630017894E+01 0.27906231392E+01 0.27427205645E+01 0.27170217469E+01
 0.27093558765E+01 0.27141462871E+01 0.27251570108E+01 0.27364617079E+01 0.27434162022E+01
 0.27434415137E+01 0.27365096429E+01 0.27251955285E+01 0.27141935290E+01 0.27094327095E+01
 0.27170999272E+01 0.27427687975E+01 0.26555772810E+01 0.27427752518E+01 0.28551581156E+01
 0.29906858043E+01 0.31448008006E+01 0.33104094309E+01 0.34781584202E+01 0.36371556791E+01
 0.37760362487E+01 0.38841627365E+01 0.39528320803E+01 0.39763581240E+01 0.39527957847E+01
 0.38841389066E+01 0.37760399256E+01 0.36371594274E+01 0.34781629910E+01 0.33104445261E+01
 0.31448535579E+01 0.29907050429E+01 0.28551334371E+01 0.27427403085E+01 0.26555363296E+01
 0.25931471069E+01 0.25531433290E+01 0.25314246702E+01 0.25227752188E+01 0.25216835504E+01
 0.25232921757E+01 0.25242490711E+01 0.25233293697E+01 0.25217186575E+01 0.25228067481E+01
 0.25314888868E+01 0.25532358710E+01 0.25932205034E+01 0.24951564408E+01 0.25932144975E+01
 0.27171035684E+01 0.28652703070E+01 0.30337472754E+01 0.32160632061E+01 0.34033510873E+01
 0.35848670842E+01 0.37489405153E+01 0.38841454185E+01 0.39805049268E+01 0.40306288339E+01
 0.40306133623E+01 0.39804865146E+01 0.38841528852E+01 0.37489485971E+01 0.35848517138E+01
 0.34033428427E+01 0.32160888468E+01 0.30337729272E+01 0.28652586264E+01 0.27170727869E+01
 0.25931868018E+01 0.24951057443E+01 0.24221584249E+01 0.23718302305E+01 0.23401639196E+01
 0.23223895869E+01 0.23137855362E+01 0.23105624433E+01 0.23105838146E+01 0.23138232690E+01
 0.23224187169E+01 0.23402126979E+01 0.23719205941E+01 0.24222500690E+01 0.23175500733E+01
 0.24222357539E+01 0.25532302959E+01 0.27094441564E+01 0.28875173971E+01 0.30816928636E+01
 0.32838060513E+01 0.34835884861E+01 0.36694296669E+01 0.38294728720E+01 0.39528069999E+01
 0.40306200958E+01 0.40572035389E+01 0.40306075604E+01 0.39528146843E+01 0.38294935396E+01
 0.36694219010E+01 0.34835556816E+01 0.32837921216E+01 0.30816997375E+01 0.28875043316E+01
 0.27094071363E+01 0.25532026278E+01 0.24222114862E+01 0.23174885411E+01 0.22381312688E+01
 0.21815915732E+01 0.21441190617E+01 0.21214641265E+01 0.21097329940E+01 0.21061754120E+01
 0.21097711494E+01 0.21215023879E+01 0.21441569396E+01 0.21816624353E+01 0.22382233828E+01
 0.21310676784E+01 0.22382114719E+01 0.23719146025E+01 0.25315061535E+01 0.27142219513E+01
 0.29150537885E+01 0.31266775234E+01 0.33395764510E+01 0.35425686850E+01 0.37237514640E+01
 0.38716474412E+01 0.39763566259E+01 0.40306136108E+01 0.40306015594E+01 0.39763448284E+01
 0.38716580482E+01 0.37237552229E+01 0.35425392262E+01 0.33395413155E+01 0.31266633084E+01
 0.29150339664E+01 0.27141714745E+01 0.25314535351E+01 0.23718861120E+01 0.22381775952E+01
 0.21309995607E+01 0.20492632039E+01 0.19904294831E+01 0.19510230140E+01 0.19273796480E+01
 0.19164492599E+01 0.19164732800E+01 0.19274241990E+01 0.19510580675E+01 0.19904748780E+01
 0.20493367881E+01 0.19435585291E+01 0.20493360406E+01 0.21816656599E+01 0.23402363644E+01
 0.25228462380E+01 0.27252275268E+01 0.29409501079E+01 0.31614306923E+01 0.33762347547E+01
 0.35738024532E+01 0.37424836827E+01 0.38716607371E+01 0.39528239192E+01 0.39804909479E+01
 0.39527962614E+01 0.38716431151E+01 0.37424806558E+01 0.35737820782E+01 0.33761952499E+01
 0.31614018539E+01 0.29409281640E+01 0.27251776606E+01 0.25227715952E+01 0.23401767772E+01
 0.21816262807E+01 0.20492842451E+01 0.19434923035E+01 0.18630087318E+01 0.18053567767E+01
 0.17674102056E+01 0.17461411985E+01 0.17393415831E+01 0.17461771630E+01 0.17674448473E+01
 0.18053841467E+01 0.18630568266E+01 0.17619286657E+01 0.18630685165E+01 0.19904896994E+01
 0.21441819278E+01 0.23224587265E+01 0.25217591083E+01 0.27365381311E+01 0.29592215727E+01
 0.31803378266E+01 0.33890060376E+01 0.35737922789E+01 0.37237545856E+01 0.38295028272E+01
 0.38841695714E+01 0.38841525619E+01 0.38294748900E+01 0.37237414139E+01 0.35737763261E+01
 0.33889656349E+01 0.31802905974E+01 0.29591864645E+01 0.27364947113E+01 0.25216874369E+01
 0.23223808896E+01 0.21441226362E+01 0.19904345251E+01 0.18630014361E+01 0.17618709214E+01
 0.16856872949E+01 0.16321062299E+01 0.15984249136E+01 0.15822879989E+01 0.15823055008E+01
 0.15984557350E+01 0.16321270984E+01 0.16857164028E+01 0.15918260703E+01 0.16857350758E+01
 0.18054067272E+01 0.19510795104E+01 0.21215308360E+01 0.23138611757E+01 0.25233696422E+01
 0.27434860739E+01 0.29657993452E+01 0.31803392163E+01 0.33762178351E+01 0.35425438251E+01
 0.36694296672E+01 0.37489660582E+01 0.37760551480E+01 0.37489528122E+01 0.36694229130E+01
 0.35425372331E+01 0.33761820412E+01 0.31802731167E+01 0.29657323645E+01 0.27434279158E+01
 0.25233031840E+01 0.23137855491E+01 0.21214651164E+01 0.19510226178E+01 0.18053396925E+01
 0.16856642815E+01 0.15917789802E+01 0.15222726180E+01 0.14750175774E+01 0.14477996004E+01
 0.14389471089E+01 0.14478220655E+01 0.14750396251E+01 0.15222951288E+01 0.14375090169E+01
 0.15223129267E+01 0.16321516416E+01 0.17674644038E+01 0.19274428686E+01 0.21098002839E+01
 0.23106268137E+01 0.25243062850E+01 0.27434914176E+01 0.29592379676E+01 0.31614369126E+01
 0.33395569345E+01 0.34835624850E+01 0.35848593262E+01 0.36371618997E+01 0.36371603264E+01
 0.35848609307E+01 0.34835648406E+01 0.33395327444E+01 0.31613681882E+01 0.29591448440E+01
 0.27434028121E+01 0.25242251336E+01 0.23105468893E+01 0.21097303866E+01 0.19273879484E+01
 0.17674077583E+01 0.16320827427E+01 0.15222502053E+01 0.14374706917E+01 0.13763563352E+01
 0.13370784040E+01 0.13179528477E+01 0.13179641901E+01 0.13371010952E+01 0.13763801755E+01
 0.13018851305E+01 0.13763917791E+01 0.14750606024E+01 0.15984768840E+01 0.17461985252E+01
 0.19165042847E+01 0.21062214694E+01 0.23106205932E+01 0.25233632849E+01 0.27365483056E+01
 0.29409733849E+01 0.31266908191E+01 0.32837996937E+01 0.34033371087E+01 0.34781458783E+01
 0.35036103710E+01 0.34781411867E+01 0.34033294639E+01 0.32837756051E+01 0.31266309050E+01
 0.29408811039E+01 0.27364470488E+01 0.25232659258E+01 0.23105251405E+01 0.21061333228E+01
 0.19164351173E+01 0.17461432007E+01 0.15984183112E+01 0.14749987196E+01 0.13763430068E+01
 0.13018536075E+01 0.12502518668E+01 0.12200725652E+01 0.12101664389E+01 0.12200910763E+01
 0.12502768383E+01 0.11866818430E+01 0.12502824647E+01 0.13371157950E+01 0.14478438224E+01
 0.15823347792E+01 0.17393843262E+01 0.19165073887E+01 0.21097971674E+01 0.23138465075E+01
 0.25217458300E+01 0.27252306310E+01 0.29150701886E+01 0.30817095403E+01 0.32160740807E+01
 0.33104125349E+01 0.33590664052E+01 0.33590555910E+01 0.33103844482E+01 0.32160322304E+01
 0.30816486917E+01 0.29149887398E+01 0.27251389992E+01 0.25216521946E+01 0.23137472851E+01
 0.21096924012E+01 0.19164113336E+01 0.17393081686E+01 0.15822720142E+01 0.14477851318E+01
 0.13370651967E+01 0.12502462650E+01 0.11866552655E+01 0.11452002315E+01 0.11248085451E+01
 0.11248179534E+01 0.11452218625E+01 0.10926959379E+01 0.11452255595E+01 0.12201018137E+01
 0.13179845603E+01 0.14389786666E+01 0.15823349708E+01 0.17462048827E+01 0.19274520015E+01
 0.21215308360E+01 0.23224456395E+01 0.25228293185E+01 0.27142115681E+01 0.28875173973E+01
 0.30337583417E+01 0.31448197000E+01 0.32142351068E+01 0.32378403735E+01 0.32142035982E+01
 0.31447664582E+01 0.30336905631E+01 0.28874371962E+01 0.27141238570E+01 0.25227398782E+01
 0.23223519001E+01 0.21214270112E+01 0.19273437162E+01 0.17461069753E+01 0.15822545896E+01
 0.14389118749E+01 0.13179290132E+01 0.12200602901E+01 0.11451967374E+01 0.10926742763E+01
 0.10616359803E+01 0.10513846799E+01 0.10616498631E+01 0.10200747174E+01 0.10616545021E+01
 0.11248290232E+01 0.12101870232E+01 0.13179829570E+01 0.14478394092E+01 0.15984755749E+01
 0.17674719335E+01 0.19510923837E+01 0.21441907930E+01 0.23402350552E+01 0.25314941667E+01
 0.27094256848E+01 0.28652550194E+01 0.29906844953E+01 0.30786422715E+01 0.31239716085E+01
 0.31239570053E+01 0.30786023378E+01 0.29906248981E+01 0.28651767975E+01 0.27093302820E+01
 0.25313891403E+01 0.23401285151E+01 0.21440848257E+01 0.19509874631E+01 0.17673728829E+01
 0.15983875708E+01 0.14477628093E+01 0.13179173540E+01 0.12101355267E+01 0.11247932912E+01
 0.10616304950E+01 0.10200586675E+01 0.99946659747E+00 0.99947274700E+00 0.96859311130E+00
 0.99947777751E+00 0.10513968287E+01 0.11248303324E+01 0.12201029021E+01 0.13371126910E+01
 0.14750531566E+01 0.16321454213E+01 0.18054078158E+01 0.19904998740E+01 0.21816814911E+01
 0.23719278983E+01 0.25532313842E+01 0.27170895897E+01 0.28551381278E+01 0.29598562682E+01
 0.30252616085E+01 0.30475006524E+01 0.30252433102E+01 0.29598182971E+01 0.28550747360E+01
 0.27169950165E+01 0.25531099986E+01 0.23717956926E+01 0.21815555350E+01 0.19903888844E+01
 0.18053122658E+01 0.16320617175E+01 0.14749768192E+01 0.13370421245E+01 0.12200418933E+01
 0.11247841731E+01 0.10513659620E+01 0.99945836803E+00 0.96858300464E+00 0.95834517220E+00
 0.93789867363E+00 0.95834939332E+00 0.99947742101E+00 0.10616554548E+01 0.11452288285E+01
 0.12502859252E+01 0.13763914226E+01 0.15223063497E+01 0.16857238682E+01 0.18630586987E+01
 0.20493356843E+01 0.22382244115E+01 0.24222558912E+01 0.25932288326E+01 0.27427748952E+01
 0.28630227484E+01 0.29472867620E+01 0.29906980076E+01 0.29906896772E+01 0.29472600556E+01
 0.28629719038E+01 0.27426923635E+01 0.25931134591E+01 0.24221191451E+01 0.22380857283E+01
 0.20492109239E+01 0.18629532998E+01 0.16856347807E+01 0.15222277530E+01 0.13763195170E+01
 0.12502213392E+01 0.11451754823E+01 0.10616164596E+01 0.99945230642E+00 0.95833556042E+00
 0.93789423078E+00 0.94733106269E+00 0.95793921584E+00 0.98991740392E+00 0.10436921960E+01
 0.11197824619E+01 0.12185483418E+01 0.13398992232E+01 0.14829961464E+01 0.16459762311E+01
 0.18257232699E+01 0.20177140849E+01 0.22159805904E+01 0.24132316882E+01 0.26011663107E+01
 0.27709775061E+01 0.29140076325E+01 0.30224808352E+01 0.30902195132E+01 0.31132473503E+01
 0.30901920467E+01 0.30224268288E+01 0.29139289692E+01 0.27708774941E+01 0.26010503691E+01
 0.24131072714E+01 0.22158558335E+01 0.20175958651E+01 0.18256158801E+01 0.16458813319E+01
 0.14829138262E+01 0.13398293607E+01 0.12184912800E+01 0.11197386094E+01 0.10436612316E+01
 0.98989809479E+00 0.95793005062E+00 0.95793042810E+00 0.95793498503E+00 0.98044419207E+00
 0.10258630045E+01 0.10948453212E+01 0.11880219517E+01 0.13056671115E+01 0.14473575519E+01
 0.16116647784E+01 0.17959034770E+01 0.19959510902E+01 0.22061608054E+01 0.24194043127E+01
 0.26272862875E+01 0.28205600705E+01 0.29897409808E+01 0.31258654525E+01 0.32212987960E+01
 0.32704742196E+01 0.32704559771E+01 0.32212458526E+01 0.31257847566E+01 0.29896446354E+01
 0.28204589342E+01 0.26271833427E+01 0.24192964440E+01 0.22060465220E+01 0.19958347495E+01
 0.17957930476E+01 0.16115677087E+01 0.14472781289E+01 0.13056054279E+01 0.11879749925E+01
 0.10948100442E+01 0.10258383356E+01 0.98042995204E+00 0.98989917114E+00 0.97801376249E+00
 0.98990808738E+00 0.10258589454E+01 0.10865870586E+01 0.11729761446E+01 0.12856912197E+01
 0.14247758998E+01 0.15892934110E+01 0.17770445563E+01 0.19843654631E+01 0.22060031444E+01
 0.24350889928E+01 0.26632545612E+01 0.28809398898E+01 0.30779267340E+01 0.32440840106E+01
 0.33702472179E+01 0.34491001219E+01 0.34759188668E+01 0.34490692182E+01 0.33701855150E+01
 0.32439979298E+01 0.30778282587E+01 0.28808372851E+01 0.26631481743E+01 0.24349773980E+01
 0.22058891650E+01 0.19842551036E+01 0.17769440387E+01 0.15892081262E+01 0.14247083271E+01
 0.12856388270E+01 0.11729344808E+01 0.10865551560E+01 0.10258386777E+01 0.10436625081E+01
 0.10184214992E+01 0.10184252213E+01 0.10436768233E+01 0.10948376568E+01 0.11729738380E+01
 0.12791363762E+01 0.14138829727E+01 0.15768423813E+01 0.17663824494E+01 0.19793837716E+01
 0.22110879055E+01 0.24550114770E+01 0.27029652769E+01 0.29452443950E+01 0.31710509984E+01
 0.33691794442E+01 0.35289263042E+01 0.36411017169E+01 0.36989694988E+01 0.36989630917E+01
 0.36410767011E+01 0.35288736586E+01 0.33690985248E+01 0.31709481891E+01 0.29451266836E+01
 0.27028413625E+01 0.24548933692E+01 0.22109839537E+01 0.19792932146E+01 0.17663015779E+01
 0.15767716898E+01 0.14138239614E+01 0.12790870882E+01 0.11729331688E+01 0.10948090743E+01
 0.11197386094E+01 0.10795553793E+01 0.10663038074E+01 0.10795621939E+01 0.11197596066E+01
 0.11880086864E+01 0.12856852880E+01 0.14138814811E+01 0.15728696316E+01 0.17616852863E+01
 0.19778585611E+01 0.22172439906E+01 0.24738934340E+01 0.27399851132E+01 0.30058861453E+01
 0.32604399043E+01 0.34915469573E+01 0.36870515225E+01 0.38358444782E+01 0.39289965491E+01
 0.39607173615E+01 0.39289940732E+01 0.38358246469E+01 0.36870018371E+01 0.34914658026E+01
 0.32603314115E+01 0.30057599657E+01 0.27398603364E+01 0.24737885001E+01 0.22171601837E+01
 0.19777835650E+01 0.17616126264E+01 0.15728037636E+01 0.14138256120E+01 0.12856377506E+01
 0.11879716879E+01 0.12184881054E+01 0.11617842134E+01 0.11339143443E+01 0.11339155690E+01
 0.11617951383E+01 0.12185170130E+01 0.13056439382E+01 0.14247605343E+01 0.15768366729E+01
 0.17616869978E+01 0.19776170148E+01 0.22212241689E+01 0.24872516118E+01 0.27684501322E+01
 0.30555155669E+01 0.33372221835E+01 0.36008588553E+01 0.38330293286E+01 0.40207840606E+01
 0.41529159138E+01 0.42211718219E+01 0.42211707008E+01 0.41529043369E+01 0.40207500818E+01
 0.38329719427E+01 0.36007810364E+01 0.33371236801E+01 0.30554041687E+01 0.27683456840E+01
 0.24871654667E+01 0.22211469095E+01 0.19775380032E+01 0.17616123789E+01 0.15767762118E+01
 0.14247115371E+01 0.13056018758E+01 0.13398226835E+01 0.12652138989E+01 0.12214964250E+01
 0.12071181689E+01 0.12215001469E+01 0.12652342613E+01 0.13398594539E+01 0.14473190167E+01
 0.15892617194E+01 0.17663681850E+01 0.19778601471E+01 0.22212279683E+01 0.24920659260E+01
 0.27838986118E+01 0.30880175680E+01 0.33934606555E+01 0.36872761490E+01 0.39551762016E+01
 0.41826145427E+01 0.43561783076E+01 0.44650316873E+01 0.45021294180E+01 0.44650205121E+01
 0.43561454751E+01 0.41825626788E+01 0.39551190389E+01 0.36872134222E+01 0.33933807850E+01
 0.30879245235E+01 0.27838098448E+01 0.24919845445E+01 0.22211436994E+01 0.19777768878E+01
 0.17663028898E+01 0.15892158797E+01 0.14472784709E+01 0.14829071732E+01 0.13894256524E+01
 0.13289313871E+01 0.12993178592E+01 0.12993179397E+01 0.13289436769E+01 0.13894606665E+01
 0.14829493133E+01 0.16116103099E+01 0.17769949203E+01 0.19793541946E+01 0.22172320197E+01
 0.24872466528E+01 0.27838969273E+01 0.30993312542E+01 0.34231915002E+01 0.37427018136E+01
 0.40431384729E+01 0.43087710775E+01 0.45242514691E+01 0.46762267223E+01 0.47548365686E+01
 0.47548353501E+01 0.46762106795E+01 0.45242097425E+01 0.43087198491E+01 0.40430926224E+01
 0.37426472698E+01 0.34231131388E+01 0.30992427615E+01 0.27838164623E+01 0.24871688740E+01
 0.22171506037E+01 0.19792852853E+01 0.17769506562E+01 0.16115746681E+01 0.16458813317E+01
 0.15332063673E+01 0.14554977393E+01 0.14102022764E+01 0.13953456173E+01 0.14102040943E+01
 0.14555252562E+01 0.15332568415E+01 0.16459255610E+01 0.17958394148E+01 0.19843029803E+01
 0.22110372712E+01 0.24738524818E+01 0.27684220375E+01 0.30880086457E+01 0.34231948146E+01
 0.37618062068E+01 0.40891917106E+01 0.43889752305E+01 0.46443352420E+01 0.48396839768E+01
 0.49624015017E+01 0.50042690600E+01 0.49624143717E+01 0.48396779273E+01 0.46443023040E+01
 0.43889368505E+01 0.40891495295E+01 0.37617391812E+01 0.34231073325E+01 0.30879312007E+01
 0.27683613178E+01 0.24737885000E+01 0.22109702179E+01 0.19842540273E+01 0.17958051294E+01
 0.18256269259E+01 0.16942920502E+01 0.15996204856E+01 0.15387636754E+01 0.15091036765E+01