   6   6   1   0
  0.1953567E+02  0.3192274E-09  0.3192274E-09  0.1328155E-08  0.5000000E-15
  1.000000000000000E-004
  CAR 
 unknown system                          
     12.00000000    -12.00000000 2401      4.63000031      1.00000000
    -12.000  0.0000E+00  0.0000E+00
    -11.990  0.0000E+00  0.0000E+00
    -11.980  0.0000E+00  0.0000E+00
    -11.970  0.0000E+00  0.0000E+00
    -11.960  0.0000E+00  0.0000E+00
    -11.950  0.0000E+00  0.0000E+00
    -11.940  0.0000E+00  0.0000E+00
    -11.930  0.0000E+00  0.0000E+00
    -11.920  0.0000E+00  0.0000E+00
    -11.910  0.0000E+00  0.0000E+00
    -11.900  0.0000E+00  0.0000E+00
    -11.890  0.0000E+00  0.0000E+00
    -11.880  0.0000E+00  0.0000E+00
    -11.870  0.0000E+00  0.0000E+00
    -11.860  0.0000E+00  0.0000E+00
    -11.850  0.0000E+00  0.0000E+00
    -11.840  0.0000E+00  0.0000E+00
    -11.830  0.0000E+00  0.0000E+00
    -11.820  0.0000E+00  0.0000E+00
    -11.810  0.0000E+00  0.0000E+00
    -11.800  0.0000E+00  0.0000E+00
    -11.790  0.0000E+00  0.0000E+00
    -11.780  0.0000E+00  0.0000E+00
    -11.770  0.0000E+00  0.0000E+00
    -11.760  0.0000E+00  0.0000E+00
    -11.750  0.0000E+00  0.0000E+00
    -11.740  0.0000E+00  0.0000E+00
    -11.730  0.0000E+00  0.0000E+00
    -11.720  0.0000E+00  0.0000E+00
    -11.710  0.0000E+00  0.0000E+00
    -11.700  0.0000E+00  0.0000E+00
    -11.690  0.0000E+00  0.0000E+00
    -11.680  0.0000E+00  0.0000E+00
    -11.670  0.0000E+00  0.0000E+00
    -11.660  0.0000E+00  0.0000E+00
    -11.650  0.0000E+00  0.0000E+00
    -11.640  0.0000E+00  0.0000E+00
    -11.630  0.0000E+00  0.0000E+00
    -11.620  0.0000E+00  0.0000E+00
    -11.610  0.0000E+00  0.0000E+00
    -11.600  0.0000E+00  0.0000E+00
    -11.590  0.0000E+00  0.0000E+00
    -11.580  0.0000E+00  0.0000E+00
    -11.570  0.0000E+00  0.0000E+00
    -11.560  0.0000E+00  0.0000E+00
    -11.550  0.0000E+00  0.0000E+00
    -11.540  0.0000E+00  0.0000E+00
    -11.530  0.0000E+00  0.0000E+00
    -11.520  0.0000E+00  0.0000E+00
    -11.510  0.0000E+00  0.0000E+00
    -11.500  0.0000E+00  0.0000E+00
    -11.490  0.0000E+00  0.0000E+00
    -11.480  0.0000E+00  0.0000E+00
    -11.470  0.0000E+00  0.0000E+00
    -11.460  0.0000E+00  0.0000E+00
    -11.450  0.0000E+00  0.0000E+00
    -11.440  0.0000E+00  0.0000E+00
    -11.430  0.0000E+00  0.0000E+00
    -11.420  0.0000E+00  0.0000E+00
    -11.410  0.0000E+00  0.0000E+00
    -11.400  0.0000E+00  0.0000E+00
    -11.390  0.0000E+00  0.0000E+00
    -11.380  0.0000E+00  0.0000E+00
    -11.370  0.0000E+00  0.0000E+00
    -11.360  0.0000E+00  0.0000E+00
    -11.350  0.0000E+00  0.0000E+00
    -11.340  0.0000E+00  0.0000E+00
    -11.330  0.0000E+00  0.0000E+00
    -11.320  0.0000E+00  0.0000E+00
    -11.310  0.0000E+00  0.0000E+00
    -11.300  0.0000E+00  0.0000E+00
    -11.290  0.0000E+00  0.0000E+00
    -11.280  0.0000E+00  0.0000E+00
    -11.270  0.0000E+00  0.0000E+00
    -11.260  0.0000E+00  0.0000E+00
    -11.250  0.0000E+00  0.0000E+00
    -11.240  0.0000E+00  0.0000E+00
    -11.230  0.0000E+00  0.0000E+00
    -11.220  0.0000E+00  0.0000E+00
    -11.210  0.0000E+00  0.0000E+00
    -11.200  0.0000E+00  0.0000E+00
    -11.190  0.0000E+00  0.0000E+00
    -11.180  0.0000E+00  0.0000E+00
    -11.170  0.0000E+00  0.0000E+00
    -11.160  0.0000E+00  0.0000E+00
    -11.150  0.0000E+00  0.0000E+00
    -11.140  0.0000E+00  0.0000E+00
    -11.130  0.0000E+00  0.0000E+00
    -11.120  0.0000E+00  0.0000E+00
    -11.110  0.0000E+00  0.0000E+00
    -11.100  0.0000E+00  0.0000E+00
    -11.090  0.0000E+00  0.0000E+00
    -11.080  0.0000E+00  0.0000E+00
    -11.070  0.0000E+00  0.0000E+00
    -11.060  0.0000E+00  0.0000E+00
    -11.050  0.0000E+00  0.0000E+00
    -11.040  0.0000E+00  0.0000E+00
    -11.030  0.0000E+00  0.0000E+00
    -11.020  0.0000E+00  0.0000E+00
    -11.010  0.0000E+00  0.0000E+00
    -11.000  0.0000E+00  0.0000E+00
    -10.990  0.0000E+00  0.0000E+00
    -10.980  0.0000E+00  0.0000E+00
    -10.970  0.0000E+00  0.0000E+00
    -10.960  0.0000E+00  0.0000E+00
    -10.950  0.0000E+00  0.0000E+00
    -10.940  0.0000E+00  0.0000E+00
    -10.930  0.0000E+00  0.0000E+00
    -10.920  0.0000E+00  0.0000E+00
    -10.910  0.0000E+00  0.0000E+00
    -10.900  0.0000E+00  0.0000E+00
    -10.890  0.0000E+00  0.0000E+00
    -10.880  0.0000E+00  0.0000E+00
    -10.870  0.0000E+00  0.0000E+00
    -10.860  0.0000E+00  0.0000E+00
    -10.850  0.0000E+00  0.0000E+00
    -10.840  0.0000E+00  0.0000E+00
    -10.830  0.0000E+00  0.0000E+00
    -10.820  0.0000E+00  0.0000E+00
    -10.810  0.0000E+00  0.0000E+00
    -10.800  0.0000E+00  0.0000E+00
    -10.790  0.0000E+00  0.0000E+00
    -10.780  0.0000E+00  0.0000E+00
    -10.770  0.0000E+00  0.0000E+00
    -10.760  0.0000E+00  0.0000E+00
    -10.750  0.0000E+00  0.0000E+00
    -10.740  0.0000E+00  0.0000E+00
    -10.730  0.0000E+00  0.0000E+00
    -10.720  0.0000E+00  0.0000E+00
    -10.710  0.0000E+00  0.0000E+00
    -10.700  0.0000E+00  0.0000E+00
    -10.690  0.0000E+00  0.0000E+00
    -10.680  0.0000E+00  0.0000E+00
    -10.670  0.0000E+00  0.0000E+00
    -10.660  0.0000E+00  0.0000E+00
    -10.650  0.0000E+00  0.0000E+00
    -10.640  0.0000E+00  0.0000E+00
    -10.630  0.0000E+00  0.0000E+00
    -10.620  0.0000E+00  0.0000E+00
    -10.610  0.0000E+00  0.0000E+00
    -10.600  0.0000E+00  0.0000E+00
    -10.590  0.0000E+00  0.0000E+00
    -10.580  0.0000E+00  0.0000E+00
    -10.570  0.0000E+00  0.0000E+00
    -10.560  0.0000E+00  0.0000E+00
    -10.550  0.0000E+00  0.0000E+00
    -10.540  0.0000E+00  0.0000E+00
    -10.530  0.0000E+00  0.0000E+00
    -10.520  0.0000E+00  0.0000E+00
    -10.510  0.0000E+00  0.0000E+00
    -10.500  0.0000E+00  0.0000E+00
    -10.490  0.0000E+00  0.0000E+00
    -10.480  0.0000E+00  0.0000E+00
    -10.470  0.0000E+00  0.0000E+00
    -10.460  0.0000E+00  0.0000E+00
    -10.450  0.0000E+00  0.0000E+00
    -10.440  0.0000E+00  0.0000E+00
    -10.430  0.0000E+00  0.0000E+00
    -10.420  0.0000E+00  0.0000E+00
    -10.410  0.0000E+00  0.0000E+00
    -10.400  0.0000E+00  0.0000E+00
    -10.390  0.0000E+00  0.0000E+00
    -10.380  0.0000E+00  0.0000E+00
    -10.370  0.0000E+00  0.0000E+00
    -10.360  0.0000E+00  0.0000E+00
    -10.350  0.0000E+00  0.0000E+00
    -10.340  0.0000E+00  0.0000E+00
    -10.330  0.0000E+00  0.0000E+00
    -10.320  0.0000E+00  0.0000E+00
    -10.310  0.0000E+00  0.0000E+00
    -10.300  0.0000E+00  0.0000E+00
    -10.290  0.0000E+00  0.0000E+00
    -10.280  0.0000E+00  0.0000E+00
    -10.270  0.0000E+00  0.0000E+00
    -10.260  0.0000E+00  0.0000E+00
    -10.250  0.0000E+00  0.0000E+00
    -10.240  0.0000E+00  0.0000E+00
    -10.230  0.0000E+00  0.0000E+00
    -10.220  0.0000E+00  0.0000E+00
    -10.210  0.0000E+00  0.0000E+00
    -10.200  0.0000E+00  0.0000E+00
    -10.190  0.0000E+00  0.0000E+00
    -10.180  0.0000E+00  0.0000E+00
    -10.170  0.0000E+00  0.0000E+00
    -10.160  0.0000E+00  0.0000E+00
    -10.150  0.0000E+00  0.0000E+00
    -10.140  0.0000E+00  0.0000E+00
    -10.130  0.0000E+00  0.0000E+00
    -10.120  0.0000E+00  0.0000E+00
    -10.110  0.0000E+00  0.0000E+00
    -10.100  0.0000E+00  0.0000E+00
    -10.090  0.0000E+00  0.0000E+00
    -10.080  0.0000E+00  0.0000E+00
    -10.070  0.0000E+00  0.0000E+00
    -10.060  0.0000E+00  0.0000E+00
    -10.050  0.0000E+00  0.0000E+00
    -10.040  0.0000E+00  0.0000E+00
    -10.030  0.0000E+00  0.0000E+00
    -10.020  0.0000E+00  0.0000E+00
    -10.010  0.0000E+00  0.0000E+00
    -10.000  0.0000E+00  0.0000E+00
     -9.990  0.0000E+00  0.0000E+00
     -9.980  0.0000E+00  0.0000E+00
     -9.970  0.0000E+00  0.0000E+00
     -9.960  0.0000E+00  0.0000E+00
     -9.950  0.0000E+00  0.0000E+00
     -9.940  0.0000E+00  0.0000E+00
     -9.930  0.0000E+00  0.0000E+00
     -9.920  0.0000E+00  0.0000E+00
     -9.910  0.1735E-04  0.2515E-08
     -9.900  0.9994E-02  0.3476E-04
     -9.890  0.3833E-01  0.2611E-03
     -9.880  0.9569E-01  0.9111E-03
     -9.870  0.1582E+00  0.2180E-02
     -9.860  0.2206E+00  0.4074E-02
     -9.850  0.2831E+00  0.6593E-02
     -9.840  0.3456E+00  0.9737E-02
     -9.830  0.4310E+00  0.1359E-01
     -9.820  0.5352E+00  0.1841E-01
     -9.810  0.6548E+00  0.2435E-01
     -9.800  0.7806E+00  0.3153E-01
     -9.790  0.9063E+00  0.3996E-01
     -9.780  0.1032E+01  0.4965E-01
     -9.770  0.1138E+01  0.6058E-01
     -9.760  0.1130E+01  0.7194E-01
     -9.750  0.1106E+01  0.8313E-01
     -9.740  0.1031E+01  0.9319E-01
     -9.730  0.1101E+01  0.1039E+00
     -9.720  0.1170E+01  0.1152E+00
     -9.710  0.1240E+01  0.1273E+00
     -9.700  0.1166E+01  0.1399E+00
     -9.690  0.1108E+01  0.1513E+00
     -9.680  0.1035E+01  0.1620E+00
     -9.670  0.9844E+00  0.1720E+00
     -9.660  0.9971E+00  0.1819E+00
     -9.650  0.1010E+01  0.1920E+00
     -9.640  0.1022E+01  0.2021E+00
     -9.630  0.1035E+01  0.2124E+00
     -9.620  0.1048E+01  0.2228E+00
     -9.610  0.1060E+01  0.2334E+00
     -9.600  0.1073E+01  0.2440E+00
     -9.590  0.1085E+01  0.2548E+00
     -9.580  0.1098E+01  0.2657E+00
     -9.570  0.1111E+01  0.2768E+00
     -9.560  0.1123E+01  0.2880E+00
     -9.550  0.1136E+01  0.2992E+00
     -9.540  0.1149E+01  0.3107E+00
     -9.530  0.1161E+01  0.3222E+00
     -9.520  0.1174E+01  0.3339E+00
     -9.510  0.1187E+01  0.3457E+00
     -9.500  0.1198E+01  0.3576E+00
     -9.490  0.1207E+01  0.3697E+00
     -9.480  0.1212E+01  0.3818E+00
     -9.470  0.1215E+01  0.3939E+00
     -9.460  0.1218E+01  0.4060E+00
     -9.450  0.1221E+01  0.4182E+00
     -9.440  0.1225E+01  0.4305E+00
     -9.430  0.1224E+01  0.4427E+00
     -9.420  0.1221E+01  0.4550E+00
     -9.410  0.1215E+01  0.4671E+00
     -9.400  0.1209E+01  0.4793E+00
     -9.390  0.1204E+01  0.4913E+00
     -9.380  0.1198E+01  0.5033E+00
     -9.370  0.1194E+01  0.5153E+00
     -9.360  0.1192E+01  0.5272E+00
     -9.350  0.1193E+01  0.5391E+00
     -9.340  0.1193E+01  0.5511E+00
     -9.330  0.1194E+01  0.5630E+00
     -9.320  0.1194E+01  0.5749E+00
     -9.310  0.1197E+01  0.5869E+00
     -9.300  0.1202E+01  0.5989E+00
     -9.290  0.1208E+01  0.6109E+00
     -9.280  0.1215E+01  0.6230E+00
     -9.270  0.1222E+01  0.6352E+00
     -9.260  0.1229E+01  0.6475E+00
     -9.250  0.1236E+01  0.6598E+00
     -9.240  0.1243E+01  0.6722E+00
     -9.230  0.1250E+01  0.6847E+00
     -9.220  0.1257E+01  0.6972E+00
     -9.210  0.1264E+01  0.7098E+00
     -9.200  0.1272E+01  0.7225E+00
     -9.190  0.1279E+01  0.7353E+00
     -9.180  0.1286E+01  0.7481E+00
     -9.170  0.1293E+01  0.7610E+00
     -9.160  0.1300E+01  0.7739E+00
     -9.150  0.1307E+01  0.7870E+00
     -9.140  0.1314E+01  0.8001E+00
     -9.130  0.1321E+01  0.8132E+00
     -9.120  0.1328E+01  0.8265E+00
     -9.110  0.1335E+01  0.8398E+00
     -9.100  0.1342E+01  0.8532E+00
     -9.090  0.1349E+01  0.8667E+00
     -9.080  0.1356E+01  0.8802E+00
     -9.070  0.1363E+01  0.8938E+00
     -9.060  0.1370E+01  0.9074E+00
     -9.050  0.1378E+01  0.9212E+00
     -9.040  0.1385E+01  0.9350E+00
     -9.030  0.1391E+01  0.9489E+00
     -9.020  0.1397E+01  0.9628E+00
     -9.010  0.1405E+01  0.9768E+00
     -9.000  0.1413E+01  0.9909E+00
     -8.990  0.1420E+01  0.1005E+01
     -8.980  0.1428E+01  0.1019E+01
     -8.970  0.1436E+01  0.1034E+01
     -8.960  0.1445E+01  0.1048E+01
     -8.950  0.1454E+01  0.1063E+01
     -8.940  0.1462E+01  0.1077E+01
     -8.930  0.1471E+01  0.1092E+01
     -8.920  0.1480E+01  0.1107E+01
     -8.910  0.1489E+01  0.1121E+01
     -8.900  0.1498E+01  0.1136E+01
     -8.890  0.1507E+01  0.1151E+01
     -8.880  0.1515E+01  0.1166E+01
     -8.870  0.1524E+01  0.1182E+01
     -8.860  0.1533E+01  0.1197E+01
     -8.850  0.1542E+01  0.1212E+01
     -8.840  0.1551E+01  0.1228E+01
     -8.830  0.1560E+01  0.1243E+01
     -8.820  0.1569E+01  0.1259E+01
     -8.810  0.1578E+01  0.1275E+01
     -8.800  0.1588E+01  0.1291E+01
     -8.790  0.1597E+01  0.1306E+01
     -8.780  0.1606E+01  0.1322E+01
     -8.770  0.1616E+01  0.1339E+01
     -8.760  0.1626E+01  0.1355E+01
     -8.750  0.1635E+01  0.1371E+01
     -8.740  0.1645E+01  0.1388E+01
     -8.730  0.1655E+01  0.1404E+01
     -8.720  0.1666E+01  0.1421E+01
     -8.710  0.1705E+01  0.1437E+01
     -8.700  0.1783E+01  0.1455E+01
     -8.690  0.1899E+01  0.1473E+01
     -8.680  0.2053E+01  0.1493E+01
     -8.670  0.2309E+01  0.1515E+01
     -8.660  0.2580E+01  0.1539E+01
     -8.650  0.2804E+01  0.1566E+01
     -8.640  0.2913E+01  0.1595E+01
     -8.630  0.2984E+01  0.1624E+01
     -8.620  0.3018E+01  0.1654E+01
     -8.610  0.2742E+01  0.1684E+01
     -8.600  0.2779E+01  0.1712E+01
     -8.590  0.2869E+01  0.1740E+01
     -8.580  0.3052E+01  0.1770E+01
     -8.570  0.3285E+01  0.1801E+01
     -8.560  0.3570E+01  0.1835E+01
     -8.550  0.3909E+01  0.1873E+01
     -8.540  0.4265E+01  0.1914E+01
     -8.530  0.4305E+01  0.1958E+01
     -8.520  0.4389E+01  0.2001E+01
     -8.510  0.4425E+01  0.2045E+01
     -8.500  0.4415E+01  0.2090E+01
     -8.490  0.4399E+01  0.2134E+01
     -8.480  0.4472E+01  0.2178E+01
     -8.470  0.4534E+01  0.2223E+01
     -8.460  0.4596E+01  0.2269E+01
     -8.450  0.4661E+01  0.2315E+01
     -8.440  0.4727E+01  0.2362E+01
     -8.430  0.4796E+01  0.2409E+01
     -8.420  0.4873E+01  0.2458E+01
     -8.410  0.4955E+01  0.2507E+01
     -8.400  0.5018E+01  0.2557E+01
     -8.390  0.5074E+01  0.2607E+01
     -8.380  0.5120E+01  0.2658E+01
     -8.370  0.5159E+01  0.2710E+01
     -8.360  0.5198E+01  0.2761E+01
     -8.350  0.5242E+01  0.2814E+01
     -8.340  0.5297E+01  0.2866E+01
     -8.330  0.5359E+01  0.2920E+01
     -8.320  0.5428E+01  0.2974E+01
     -8.310  0.5507E+01  0.3028E+01
     -8.300  0.5590E+01  0.3084E+01
     -8.290  0.5673E+01  0.3140E+01
     -8.280  0.5757E+01  0.3197E+01
     -8.270  0.5849E+01  0.3255E+01
     -8.260  0.5945E+01  0.3314E+01
     -8.250  0.6042E+01  0.3374E+01
     -8.240  0.6143E+01  0.3435E+01
     -8.230  0.6243E+01  0.3497E+01
     -8.220  0.6343E+01  0.3560E+01
     -8.210  0.6444E+01  0.3624E+01
     -8.200  0.6544E+01  0.3689E+01
     -8.190  0.6644E+01  0.3755E+01
     -8.180  0.6748E+01  0.3822E+01
     -8.170  0.6854E+01  0.3890E+01
     -8.160  0.6964E+01  0.3959E+01
     -8.150  0.7073E+01  0.4029E+01
     -8.140  0.7183E+01  0.4100E+01
     -8.130  0.7300E+01  0.4173E+01
     -8.120  0.7755E+01  0.4247E+01
     -8.110  0.9190E+01  0.4328E+01
     -8.100  0.1460E+02  0.4451E+01
     -8.090  0.8516E+01  0.4559E+01
     -8.080  0.1384E+02  0.4656E+01
     -8.070  0.1237E+02  0.4790E+01
     -8.060  0.8566E+01  0.4886E+01
     -8.050  0.8431E+01  0.4971E+01
     -8.040  0.8313E+01  0.5055E+01
     -8.030  0.8219E+01  0.5138E+01
     -8.020  0.8157E+01  0.5220E+01
     -8.010  0.8089E+01  0.5301E+01
     -8.000  0.8012E+01  0.5381E+01
     -7.990  0.7931E+01  0.5461E+01
     -7.980  0.7886E+01  0.5540E+01
     -7.970  0.7890E+01  0.5619E+01
     -7.960  0.7918E+01  0.5698E+01
     -7.950  0.7934E+01  0.5777E+01
     -7.940  0.7963E+01  0.5857E+01
     -7.930  0.8200E+01  0.5937E+01
     -7.920  0.8561E+01  0.6021E+01
     -7.910  0.9111E+01  0.6109E+01
     -7.900  0.9670E+01  0.6203E+01
     -7.890  0.1027E+02  0.6303E+01
     -7.880  0.1387E+02  0.6411E+01
     -7.870  0.9467E+01  0.6525E+01
     -7.860  0.7735E+01  0.6629E+01
     -7.850  0.8064E+01  0.6708E+01
     -7.840  0.1178E+02  0.6794E+01
     -7.830  0.1503E+02  0.6916E+01
     -7.820  0.8831E+01  0.7014E+01
     -7.810  0.1309E+02  0.7113E+01
     -7.800  0.9267E+01  0.7232E+01
     -7.790  0.8090E+01  0.7313E+01
     -7.780  0.7837E+01  0.7393E+01
     -7.770  0.7263E+01  0.7469E+01
     -7.760  0.6689E+01  0.7538E+01
     -7.750  0.6114E+01  0.7603E+01
     -7.740  0.5539E+01  0.7661E+01
     -7.730  0.5049E+01  0.7713E+01
     -7.720  0.4906E+01  0.7763E+01
     -7.710  0.5037E+01  0.7812E+01
     -7.700  0.5406E+01  0.7865E+01
     -7.690  0.7239E+01  0.7927E+01
     -7.680  0.3104E+01  0.7971E+01
     -7.670  0.0000E+00  0.8000E+01
     -7.660  0.0000E+00  0.8000E+01
     -7.650  0.0000E+00  0.8000E+01
     -7.640  0.0000E+00  0.8000E+01
     -7.630  0.0000E+00  0.8000E+01
     -7.620  0.0000E+00  0.8000E+01
     -7.610  0.0000E+00  0.8000E+01
     -7.600  0.0000E+00  0.8000E+01
     -7.590  0.0000E+00  0.8000E+01
     -7.580  0.0000E+00  0.8000E+01
     -7.570  0.0000E+00  0.8000E+01
     -7.560  0.0000E+00  0.8000E+01
     -7.550  0.0000E+00  0.8000E+01
     -7.540  0.0000E+00  0.8000E+01
     -7.530  0.0000E+00  0.8000E+01
     -7.520  0.0000E+00  0.8000E+01
     -7.510  0.0000E+00  0.8000E+01
     -7.500  0.0000E+00  0.8000E+01
     -7.490  0.0000E+00  0.8000E+01
     -7.480  0.0000E+00  0.8000E+01
     -7.470  0.0000E+00  0.8000E+01
     -7.460  0.0000E+00  0.8000E+01
     -7.450  0.0000E+00  0.8000E+01
     -7.440  0.0000E+00  0.8000E+01
     -7.430  0.0000E+00  0.8000E+01
     -7.420  0.0000E+00  0.8000E+01
     -7.410  0.0000E+00  0.8000E+01
     -7.400  0.0000E+00  0.8000E+01
     -7.390  0.0000E+00  0.8000E+01
     -7.380  0.0000E+00  0.8000E+01
     -7.370  0.0000E+00  0.8000E+01
     -7.360  0.0000E+00  0.8000E+01
     -7.350  0.0000E+00  0.8000E+01
     -7.340  0.0000E+00  0.8000E+01
     -7.330  0.0000E+00  0.8000E+01
     -7.320  0.0000E+00  0.8000E+01
     -7.310  0.0000E+00  0.8000E+01
     -7.300  0.0000E+00  0.8000E+01
     -7.290  0.0000E+00  0.8000E+01
     -7.280  0.0000E+00  0.8000E+01
     -7.270  0.0000E+00  0.8000E+01
     -7.260  0.0000E+00  0.8000E+01
     -7.250  0.0000E+00  0.8000E+01
     -7.240  0.0000E+00  0.8000E+01
     -7.230  0.0000E+00  0.8000E+01
     -7.220  0.0000E+00  0.8000E+01
     -7.210  0.0000E+00  0.8000E+01
     -7.200  0.0000E+00  0.8000E+01
     -7.190  0.0000E+00  0.8000E+01
     -7.180  0.0000E+00  0.8000E+01
     -7.170  0.0000E+00  0.8000E+01
     -7.160  0.0000E+00  0.8000E+01
     -7.150  0.0000E+00  0.8000E+01
     -7.140  0.0000E+00  0.8000E+01
     -7.130  0.0000E+00  0.8000E+01
     -7.120  0.0000E+00  0.8000E+01
     -7.110  0.0000E+00  0.8000E+01
     -7.100  0.0000E+00  0.8000E+01
     -7.090  0.0000E+00  0.8000E+01
     -7.080  0.0000E+00  0.8000E+01
     -7.070  0.0000E+00  0.8000E+01
     -7.060  0.0000E+00  0.8000E+01
     -7.050  0.0000E+00  0.8000E+01
     -7.040  0.0000E+00  0.8000E+01
     -7.030  0.0000E+00  0.8000E+01
     -7.020  0.0000E+00  0.8000E+01
     -7.010  0.0000E+00  0.8000E+01
     -7.000  0.0000E+00  0.8000E+01
     -6.990  0.0000E+00  0.8000E+01
     -6.980  0.0000E+00  0.8000E+01
     -6.970  0.0000E+00  0.8000E+01
     -6.960  0.0000E+00  0.8000E+01
     -6.950  0.0000E+00  0.8000E+01
     -6.940  0.0000E+00  0.8000E+01
     -6.930  0.0000E+00  0.8000E+01
     -6.920  0.0000E+00  0.8000E+01
     -6.910  0.0000E+00  0.8000E+01
     -6.900  0.0000E+00  0.8000E+01
     -6.890  0.0000E+00  0.8000E+01
     -6.880  0.0000E+00  0.8000E+01
     -6.870  0.0000E+00  0.8000E+01
     -6.860  0.0000E+00  0.8000E+01
     -6.850  0.0000E+00  0.8000E+01
     -6.840  0.0000E+00  0.8000E+01
     -6.830  0.0000E+00  0.8000E+01
     -6.820  0.0000E+00  0.8000E+01
     -6.810  0.0000E+00  0.8000E+01
     -6.800  0.0000E+00  0.8000E+01
     -6.790  0.0000E+00  0.8000E+01
     -6.780  0.0000E+00  0.8000E+01
     -6.770  0.0000E+00  0.8000E+01
     -6.760  0.0000E+00  0.8000E+01
     -6.750  0.0000E+00  0.8000E+01
     -6.740  0.0000E+00  0.8000E+01
     -6.730  0.0000E+00  0.8000E+01
     -6.720  0.0000E+00  0.8000E+01
     -6.710  0.0000E+00  0.8000E+01
     -6.700  0.0000E+00  0.8000E+01
     -6.690  0.0000E+00  0.8000E+01
     -6.680  0.0000E+00  0.8000E+01
     -6.670  0.0000E+00  0.8000E+01
     -6.660  0.0000E+00  0.8000E+01
     -6.650  0.0000E+00  0.8000E+01
     -6.640  0.0000E+00  0.8000E+01
     -6.630  0.0000E+00  0.8000E+01
     -6.620  0.0000E+00  0.8000E+01
     -6.610  0.0000E+00  0.8000E+01
     -6.600  0.0000E+00  0.8000E+01
     -6.590  0.0000E+00  0.8000E+01
     -6.580  0.0000E+00  0.8000E+01
     -6.570  0.0000E+00  0.8000E+01
     -6.560  0.0000E+00  0.8000E+01
     -6.550  0.0000E+00  0.8000E+01
     -6.540  0.0000E+00  0.8000E+01
     -6.530  0.0000E+00  0.8000E+01
     -6.520  0.0000E+00  0.8000E+01
     -6.510  0.0000E+00  0.8000E+01
     -6.500  0.0000E+00  0.8000E+01
     -6.490  0.0000E+00  0.8000E+01
     -6.480  0.0000E+00  0.8000E+01
     -6.470  0.0000E+00  0.8000E+01
     -6.460  0.0000E+00  0.8000E+01
     -6.450  0.0000E+00  0.8000E+01
     -6.440  0.0000E+00  0.8000E+01
     -6.430  0.0000E+00  0.8000E+01
     -6.420  0.0000E+00  0.8000E+01
     -6.410  0.0000E+00  0.8000E+01
     -6.400  0.0000E+00  0.8000E+01
     -6.390  0.0000E+00  0.8000E+01
     -6.380  0.0000E+00  0.8000E+01
     -6.370  0.0000E+00  0.8000E+01
     -6.360  0.0000E+00  0.8000E+01
     -6.350  0.0000E+00  0.8000E+01
     -6.340  0.0000E+00  0.8000E+01
     -6.330  0.0000E+00  0.8000E+01
     -6.320  0.0000E+00  0.8000E+01
     -6.310  0.0000E+00  0.8000E+01
     -6.300  0.0000E+00  0.8000E+01
     -6.290  0.0000E+00  0.8000E+01
     -6.280  0.0000E+00  0.8000E+01
     -6.270  0.0000E+00  0.8000E+01
     -6.260  0.0000E+00  0.8000E+01
     -6.250  0.0000E+00  0.8000E+01
     -6.240  0.0000E+00  0.8000E+01
     -6.230  0.0000E+00  0.8000E+01
     -6.220  0.0000E+00  0.8000E+01
     -6.210  0.0000E+00  0.8000E+01
     -6.200  0.0000E+00  0.8000E+01
     -6.190  0.0000E+00  0.8000E+01
     -6.180  0.0000E+00  0.8000E+01
     -6.170  0.0000E+00  0.8000E+01
     -6.160  0.0000E+00  0.8000E+01
     -6.150  0.0000E+00  0.8000E+01
     -6.140  0.0000E+00  0.8000E+01
     -6.130  0.0000E+00  0.8000E+01
     -6.120  0.0000E+00  0.8000E+01
     -6.110  0.0000E+00  0.8000E+01
     -6.100  0.0000E+00  0.8000E+01
     -6.090  0.0000E+00  0.8000E+01
     -6.080  0.0000E+00  0.8000E+01
     -6.070  0.0000E+00  0.8000E+01
     -6.060  0.0000E+00  0.8000E+01
     -6.050  0.0000E+00  0.8000E+01
     -6.040  0.0000E+00  0.8000E+01
     -6.030  0.0000E+00  0.8000E+01
     -6.020  0.0000E+00  0.8000E+01
     -6.010  0.0000E+00  0.8000E+01
     -6.000  0.0000E+00  0.8000E+01
     -5.990  0.0000E+00  0.8000E+01
     -5.980  0.0000E+00  0.8000E+01
     -5.970  0.0000E+00  0.8000E+01
     -5.960  0.0000E+00  0.8000E+01
     -5.950  0.0000E+00  0.8000E+01
     -5.940  0.0000E+00  0.8000E+01
     -5.930  0.0000E+00  0.8000E+01
     -5.920  0.0000E+00  0.8000E+01
     -5.910  0.0000E+00  0.8000E+01
     -5.900  0.0000E+00  0.8000E+01
     -5.890  0.0000E+00  0.8000E+01
     -5.880  0.0000E+00  0.8000E+01
     -5.870  0.0000E+00  0.8000E+01
     -5.860  0.0000E+00  0.8000E+01
     -5.850  0.0000E+00  0.8000E+01
     -5.840  0.0000E+00  0.8000E+01
     -5.830  0.0000E+00  0.8000E+01
     -5.820  0.0000E+00  0.8000E+01
     -5.810  0.0000E+00  0.8000E+01
     -5.800  0.0000E+00  0.8000E+01
     -5.790  0.0000E+00  0.8000E+01
     -5.780  0.0000E+00  0.8000E+01
     -5.770  0.0000E+00  0.8000E+01
     -5.760  0.0000E+00  0.8000E+01
     -5.750  0.0000E+00  0.8000E+01
     -5.740  0.0000E+00  0.8000E+01
     -5.730  0.0000E+00  0.8000E+01
     -5.720  0.0000E+00  0.8000E+01
     -5.710  0.0000E+00  0.8000E+01
     -5.700  0.0000E+00  0.8000E+01
     -5.690  0.0000E+00  0.8000E+01
     -5.680  0.0000E+00  0.8000E+01
     -5.670  0.0000E+00  0.8000E+01
     -5.660  0.0000E+00  0.8000E+01
     -5.650  0.0000E+00  0.8000E+01
     -5.640  0.0000E+00  0.8000E+01
     -5.630  0.0000E+00  0.8000E+01
     -5.620  0.0000E+00  0.8000E+01
     -5.610  0.0000E+00  0.8000E+01
     -5.600  0.0000E+00  0.8000E+01
     -5.590  0.0000E+00  0.8000E+01
     -5.580  0.0000E+00  0.8000E+01
     -5.570  0.0000E+00  0.8000E+01
     -5.560  0.0000E+00  0.8000E+01
     -5.550  0.0000E+00  0.8000E+01
     -5.540  0.0000E+00  0.8000E+01
     -5.530  0.0000E+00  0.8000E+01
     -5.520  0.0000E+00  0.8000E+01
     -5.510  0.0000E+00  0.8000E+01
     -5.500  0.0000E+00  0.8000E+01
     -5.490  0.0000E+00  0.8000E+01
     -5.480  0.0000E+00  0.8000E+01
     -5.470  0.0000E+00  0.8000E+01
     -5.460  0.0000E+00  0.8000E+01
     -5.450  0.0000E+00  0.8000E+01
     -5.440  0.0000E+00  0.8000E+01
     -5.430  0.0000E+00  0.8000E+01
     -5.420  0.0000E+00  0.8000E+01
     -5.410  0.0000E+00  0.8000E+01
     -5.400  0.0000E+00  0.8000E+01
     -5.390  0.0000E+00  0.8000E+01
     -5.380  0.0000E+00  0.8000E+01
     -5.370  0.0000E+00  0.8000E+01
     -5.360  0.0000E+00  0.8000E+01
     -5.350  0.0000E+00  0.8000E+01
     -5.340  0.0000E+00  0.8000E+01
     -5.330  0.0000E+00  0.8000E+01
     -5.320  0.0000E+00  0.8000E+01
     -5.310  0.0000E+00  0.8000E+01
     -5.300  0.0000E+00  0.8000E+01
     -5.290  0.0000E+00  0.8000E+01
     -5.280  0.0000E+00  0.8000E+01
     -5.270  0.0000E+00  0.8000E+01
     -5.260  0.0000E+00  0.8000E+01
     -5.250  0.0000E+00  0.8000E+01
     -5.240  0.0000E+00  0.8000E+01
     -5.230  0.0000E+00  0.8000E+01
     -5.220  0.0000E+00  0.8000E+01
     -5.210  0.0000E+00  0.8000E+01
     -5.200  0.0000E+00  0.8000E+01
     -5.190  0.0000E+00  0.8000E+01
     -5.180  0.0000E+00  0.8000E+01
     -5.170  0.0000E+00  0.8000E+01
     -5.160  0.0000E+00  0.8000E+01
     -5.150  0.0000E+00  0.8000E+01
     -5.140  0.0000E+00  0.8000E+01
     -5.130  0.0000E+00  0.8000E+01
     -5.120  0.0000E+00  0.8000E+01
     -5.110  0.0000E+00  0.8000E+01
     -5.100  0.0000E+00  0.8000E+01
     -5.090  0.0000E+00  0.8000E+01
     -5.080  0.0000E+00  0.8000E+01
     -5.070  0.0000E+00  0.8000E+01
     -5.060  0.0000E+00  0.8000E+01
     -5.050  0.0000E+00  0.8000E+01
     -5.040  0.0000E+00  0.8000E+01
     -5.030  0.0000E+00  0.8000E+01
     -5.020  0.0000E+00  0.8000E+01
     -5.010  0.0000E+00  0.8000E+01
     -5.000  0.0000E+00  0.8000E+01
     -4.990  0.0000E+00  0.8000E+01
     -4.980  0.0000E+00  0.8000E+01
     -4.970  0.0000E+00  0.8000E+01
     -4.960  0.0000E+00  0.8000E+01
     -4.950  0.0000E+00  0.8000E+01
     -4.940  0.0000E+00  0.8000E+01
     -4.930  0.0000E+00  0.8000E+01
     -4.920  0.0000E+00  0.8000E+01
     -4.910  0.0000E+00  0.8000E+01
     -4.900  0.0000E+00  0.8000E+01
     -4.890  0.0000E+00  0.8000E+01
     -4.880  0.0000E+00  0.8000E+01
     -4.870  0.0000E+00  0.8000E+01
     -4.860  0.0000E+00  0.8000E+01
     -4.850  0.0000E+00  0.8000E+01
     -4.840  0.0000E+00  0.8000E+01
     -4.830  0.0000E+00  0.8000E+01
     -4.820  0.0000E+00  0.8000E+01
     -4.810  0.0000E+00  0.8000E+01
     -4.800  0.0000E+00  0.8000E+01
     -4.790  0.0000E+00  0.8000E+01
     -4.780  0.0000E+00  0.8000E+01
     -4.770  0.0000E+00  0.8000E+01
     -4.760  0.0000E+00  0.8000E+01
     -4.750  0.0000E+00  0.8000E+01
     -4.740  0.0000E+00  0.8000E+01
     -4.730  0.0000E+00  0.8000E+01
     -4.720  0.0000E+00  0.8000E+01
     -4.710  0.0000E+00  0.8000E+01
     -4.700  0.0000E+00  0.8000E+01
     -4.690  0.0000E+00  0.8000E+01
     -4.680  0.0000E+00  0.8000E+01
     -4.670  0.0000E+00  0.8000E+01
     -4.660  0.0000E+00  0.8000E+01
     -4.650  0.0000E+00  0.8000E+01
     -4.640  0.0000E+00  0.8000E+01
     -4.630  0.0000E+00  0.8000E+01
     -4.620  0.0000E+00  0.8000E+01
     -4.610  0.0000E+00  0.8000E+01
     -4.600  0.0000E+00  0.8000E+01
     -4.590  0.0000E+00  0.8000E+01
     -4.580  0.0000E+00  0.8000E+01
     -4.570  0.0000E+00  0.8000E+01
     -4.560  0.0000E+00  0.8000E+01
     -4.550  0.0000E+00  0.8000E+01
     -4.540  0.0000E+00  0.8000E+01
     -4.530  0.0000E+00  0.8000E+01
     -4.520  0.0000E+00  0.8000E+01
     -4.510  0.0000E+00  0.8000E+01
     -4.500  0.0000E+00  0.8000E+01
     -4.490  0.0000E+00  0.8000E+01
     -4.480  0.0000E+00  0.8000E+01
     -4.470  0.0000E+00  0.8000E+01
     -4.460  0.0000E+00  0.8000E+01
     -4.450  0.0000E+00  0.8000E+01
     -4.440  0.0000E+00  0.8000E+01
     -4.430  0.0000E+00  0.8000E+01
     -4.420  0.0000E+00  0.8000E+01
     -4.410  0.0000E+00  0.8000E+01
     -4.400  0.0000E+00  0.8000E+01
     -4.390  0.0000E+00  0.8000E+01
     -4.380  0.0000E+00  0.8000E+01
     -4.370  0.0000E+00  0.8000E+01
     -4.360  0.0000E+00  0.8000E+01
     -4.350  0.0000E+00  0.8000E+01
     -4.340  0.0000E+00  0.8000E+01
     -4.330  0.0000E+00  0.8000E+01
     -4.320  0.0000E+00  0.8000E+01
     -4.310  0.0000E+00  0.8000E+01
     -4.300  0.0000E+00  0.8000E+01
     -4.290  0.0000E+00  0.8000E+01
     -4.280  0.0000E+00  0.8000E+01
     -4.270  0.0000E+00  0.8000E+01
     -4.260  0.0000E+00  0.8000E+01
     -4.250  0.0000E+00  0.8000E+01
     -4.240  0.0000E+00  0.8000E+01
     -4.230  0.0000E+00  0.8000E+01
     -4.220  0.0000E+00  0.8000E+01
     -4.210  0.0000E+00  0.8000E+01
     -4.200  0.0000E+00  0.8000E+01
     -4.190  0.0000E+00  0.8000E+01
     -4.180  0.0000E+00  0.8000E+01
     -4.170  0.0000E+00  0.8000E+01
     -4.160  0.0000E+00  0.8000E+01
     -4.150  0.0000E+00  0.8000E+01
     -4.140  0.0000E+00  0.8000E+01
     -4.130  0.0000E+00  0.8000E+01
     -4.120  0.0000E+00  0.8000E+01
     -4.110  0.0000E+00  0.8000E+01
     -4.100  0.0000E+00  0.8000E+01
     -4.090  0.0000E+00  0.8000E+01
     -4.080  0.0000E+00  0.8000E+01
     -4.070  0.0000E+00  0.8000E+01
     -4.060  0.0000E+00  0.8000E+01
     -4.050  0.0000E+00  0.8000E+01
     -4.040  0.0000E+00  0.8000E+01
     -4.030  0.0000E+00  0.8000E+01
     -4.020  0.0000E+00  0.8000E+01
     -4.010  0.0000E+00  0.8000E+01
     -4.000  0.0000E+00  0.8000E+01
     -3.990  0.0000E+00  0.8000E+01
     -3.980  0.0000E+00  0.8000E+01
     -3.970  0.0000E+00  0.8000E+01
     -3.960  0.0000E+00  0.8000E+01
     -3.950  0.0000E+00  0.8000E+01
     -3.940  0.0000E+00  0.8000E+01
     -3.930  0.0000E+00  0.8000E+01
     -3.920  0.0000E+00  0.8000E+01
     -3.910  0.0000E+00  0.8000E+01
     -3.900  0.0000E+00  0.8000E+01
     -3.890  0.0000E+00  0.8000E+01
     -3.880  0.0000E+00  0.8000E+01
     -3.870  0.0000E+00  0.8000E+01
     -3.860  0.0000E+00  0.8000E+01
     -3.850  0.0000E+00  0.8000E+01
     -3.840  0.0000E+00  0.8000E+01
     -3.830  0.0000E+00  0.8000E+01
     -3.820  0.0000E+00  0.8000E+01
     -3.810  0.0000E+00  0.8000E+01
     -3.800  0.0000E+00  0.8000E+01
     -3.790  0.0000E+00  0.8000E+01
     -3.780  0.0000E+00  0.8000E+01
     -3.770  0.0000E+00  0.8000E+01
     -3.760  0.0000E+00  0.8000E+01
     -3.750  0.0000E+00  0.8000E+01