unknown system                          
   1.00000000000000     
     3.192274    0.000000    0.000000
    -1.596137    2.764590    0.000000
     0.000000    0.000000   13.281549
   Mo   S 
     2     4
Direct
  0.333333  0.666667  0.250000
  0.666667  0.333333  0.750000
  0.333333  0.666667  0.867436
  0.666667  0.333333  0.132564
  0.666666  0.333333  0.367436
  0.333334  0.666667  0.632564
 
   18   18   70
 0.37178E-02 0.41111E-02 0.52272E-02 0.68550E-02 0.88232E-02 0.11001E-01 0.13119E-01 0.14918E-01 0.16177E-01 0.16629E-01
 0.16178E-01 0.14918E-01 0.13118E-01 0.10999E-01 0.88219E-02 0.68539E-02 0.52266E-02 0.41109E-02 0.41098E-02 0.41105E-02
 0.48764E-02 0.63576E-02 0.84031E-02 0.10899E-01 0.13673E-01 0.16304E-01 0.18311E-01 0.19428E-01 0.19440E-01 0.18342E-01
 0.16275E-01 0.13653E-01 0.10920E-01 0.84105E-02 0.63453E-02 0.48781E-02 0.52233E-02 0.48802E-02 0.52252E-02 0.63423E-02
 0.84515E-02 0.11772E-01 0.16156E-01 0.21097E-01 0.25742E-01 0.29043E-01 0.30202E-01 0.28976E-01 0.25740E-01 0.21168E-01
 0.16149E-01 0.11736E-01 0.84533E-02 0.63506E-02 0.68699E-02 0.63395E-02 0.63545E-02 0.68627E-02 0.84118E-02 0.11710E-01
 0.17676E-01 0.26324E-01 0.36466E-01 0.45613E-01 0.51266E-01 0.51298E-01 0.45721E-01 0.36373E-01 0.26316E-01 0.17660E-01
 0.11752E-01 0.83913E-02 0.88261E-02 0.83998E-02 0.84570E-02 0.83911E-02 0.88247E-02 0.10939E-01 0.16159E-01 0.26238E-01
 0.42142E-01 0.61240E-01 0.77216E-01 0.83332E-01 0.77228E-01 0.61263E-01 0.42125E-01 0.26264E-01 0.16164E-01 0.10916E-01
 0.10962E-01 0.10938E-01 0.11717E-01 0.11780E-01 0.10898E-01 0.10981E-01 0.13653E-01 0.21203E-01 0.36390E-01 0.61201E-01
 0.89545E-01 0.10959     0.10903     0.89707E-01 0.61095E-01 0.36535E-01 0.21096E-01 0.13694E-01 0.13117E-01 0.13674E-01
 0.16159E-01 0.17644E-01 0.16156E-01 0.13695E-01 0.13118E-01 0.16252E-01 0.25747E-01 0.45750E-01 0.77227E-01 0.10903    
 0.12288     0.10940     0.77179E-01 0.45676E-01 0.25741E-01 0.16280E-01 0.14959E-01 0.16252E-01 0.21166E-01 0.26257E-01
 0.26343E-01 0.21061E-01 0.16304E-01 0.14939E-01 0.18337E-01 0.28944E-01 0.51324E-01 0.83508E-01 0.10942     0.10884    
 0.83649E-01 0.51196E-01 0.29052E-01 0.18291E-01 0.16173E-01 0.18321E-01 0.25738E-01 0.36440E-01 0.42106E-01 0.36517E-01
 0.25732E-01 0.18295E-01 0.16175E-01 0.19463E-01 0.30203E-01 0.51181E-01 0.77195E-01 0.89861E-01 0.77171E-01 0.51219E-01
 0.30202E-01 0.19447E-01 0.16602E-01 0.19460E-01 0.28984E-01 0.45781E-01 0.61109E-01 0.61148E-01 0.45643E-01 0.29083E-01
 0.19425E-01 0.16616E-01 0.19423E-01 0.29084E-01 0.45651E-01 0.61158E-01 0.61105E-01 0.45771E-01 0.28981E-01 0.19459E-01
 0.16172E-01 0.19447E-01 0.30203E-01 0.51229E-01 0.77186E-01 0.89857E-01 0.77175E-01 0.51172E-01 0.30202E-01 0.19464E-01
 0.16175E-01 0.18295E-01 0.25733E-01 0.36522E-01 0.42110E-01 0.36438E-01 0.25736E-01 0.18320E-01 0.14959E-01 0.18290E-01
 0.29051E-01 0.51198E-01 0.83659E-01 0.10885     0.10940     0.83482E-01 0.51314E-01 0.28944E-01 0.18338E-01 0.14939E-01
 0.16304E-01 0.21063E-01 0.26346E-01 0.26259E-01 0.21167E-01 0.16253E-01 0.13118E-01 0.16280E-01 0.25740E-01 0.45672E-01
 0.77173E-01 0.10940     0.12287     0.10901     0.77207E-01 0.45742E-01 0.25746E-01 0.16252E-01 0.13118E-01 0.13695E-01
 0.16158E-01 0.17646E-01 0.16161E-01 0.13675E-01 0.10963E-01 0.13695E-01 0.21096E-01 0.36533E-01 0.61087E-01 0.89694E-01
 0.10903     0.10959     0.89540E-01 0.61192E-01 0.36384E-01 0.21201E-01 0.13653E-01 0.10981E-01 0.10899E-01 0.11782E-01
 0.11719E-01 0.10940E-01 0.88274E-02 0.10917E-01 0.16165E-01 0.26264E-01 0.42123E-01 0.61254E-01 0.77222E-01 0.83341E-01
 0.77231E-01 0.61244E-01 0.42139E-01 0.26234E-01 0.16157E-01 0.10938E-01 0.88247E-02 0.83917E-02 0.84581E-02 0.84010E-02
 0.68710E-02 0.83927E-02 0.11754E-01 0.17661E-01 0.26317E-01 0.36371E-01 0.45717E-01 0.51300E-01 0.51276E-01 0.45622E-01
 0.36468E-01 0.26322E-01 0.17674E-01 0.11709E-01 0.84111E-02 0.68627E-02 0.63551E-02 0.63403E-02 0.52239E-02 0.63517E-02
 0.84548E-02 0.11737E-01 0.16150E-01 0.21168E-01 0.25739E-01 0.28975E-01 0.30204E-01 0.29047E-01 0.25744E-01 0.21096E-01
 0.16154E-01 0.11771E-01 0.84504E-02 0.63417E-02 0.52252E-02 0.48805E-02 0.41100E-02 0.48786E-02 0.63464E-02 0.84119E-02
 0.10921E-01 0.13654E-01 0.16276E-01 0.18342E-01 0.19440E-01 0.19429E-01 0.18312E-01 0.16304E-01 0.13672E-01 0.10898E-01
 0.84019E-02 0.63568E-02 0.48761E-02 0.41105E-02 0.44513E-02 0.49262E-02 0.64672E-02 0.93078E-02 0.13633E-01 0.19212E-01
 0.25183E-01 0.30495E-01 0.34220E-01 0.35556E-01 0.34219E-01 0.30481E-01 0.25191E-01 0.19223E-01 0.13626E-01 0.93053E-02
 0.64669E-02 0.49257E-02 0.49251E-02 0.49251E-02 0.63690E-02 0.10016E-01 0.16970E-01 0.27859E-01 0.41884E-01 0.56386E-01
 0.67978E-01 0.74404E-01 0.74464E-01 0.68124E-01 0.56291E-01 0.41800E-01 0.27915E-01 0.16988E-01 0.99992E-02 0.63706E-02
 0.64625E-02 0.55511E-02 0.64649E-02 0.99953E-02 0.18568E-01 0.35465E-01 0.61810E-01 0.94599E-01 0.12677     0.14980    
 0.15787     0.14942     0.12678     0.94939E-01 0.61785E-01 0.35364E-01 0.18572E-01 0.10007E-01 0.93276E-02 0.67694E-02
 0.67857E-02 0.93161E-02 0.16990E-01 0.35294E-01 0.71357E-01 0.12610     0.19010     0.24546     0.27774     0.27795    
 0.24596     0.18959     0.12614     0.71286E-01 0.35418E-01 0.16948E-01 0.13638E-01 0.85861E-02 0.74083E-02 0.85790E-02
 0.13634E-01 0.27949E-01 0.61832E-01 0.12578     0.21749     0.31254     0.38085     0.40455     0.38092     0.31270    
 0.21743     0.12585     0.61866E-01 0.27893E-01 0.19142E-01 0.10949E-01 0.84141E-02 0.84624E-02 0.10902E-01 0.19195E-01
 0.41799E-01 0.95071E-01 0.18969     0.31247     0.41890     0.47957     0.47794     0.41948     0.31195     0.19049    
 0.94544E-01 0.41966E-01 0.25177E-01 0.13594E-01 0.98540E-02 0.90779E-02 0.98540E-02 0.13607E-01 0.25188E-01 0.56219E-01
 0.12680     0.24610     0.38091     0.47793     0.51249     0.47904     0.38067     0.24578     0.12676     0.56326E-01
 0.30589E-01 0.16171E-01 0.11480E-01 0.10383E-01 0.10422E-01 0.11423E-01 0.16230E-01 0.30517E-01 0.68111E-01 0.14926    
 0.27806     0.40522     0.47909     0.47738     0.40577     0.27737     0.14989     0.67881E-01 0.34211E-01 0.18308E-01
 0.12939E-01 0.11959E-01 0.12143E-01 0.11980E-01 0.12935E-01 0.18288E-01 0.34204E-01 0.74565E-01 0.15788     0.27733    
 0.38073     0.42004     0.38065     0.27753     0.15787     0.74485E-01 0.35495E-01 0.19505E-01 0.13978E-01 0.13310E-01
 0.14311E-01 0.14323E-01 0.13273E-01 0.14020E-01 0.19471E-01 0.35524E-01 0.74379E-01 0.15006     0.24567     0.31217    
 0.31203     0.24621     0.14948     0.74538E-01 0.34207E-01 0.19493E-01 0.14375E-01 0.14028E-01 0.16008E-01 0.17365E-01
 0.16007E-01 0.14016E-01 0.14375E-01 0.19507E-01 0.34221E-01 0.67886E-01 0.12674     0.19040     0.21736     0.18993    
 0.12674     0.68012E-01 0.30571E-01 0.18281E-01 0.14005E-01 0.14023E-01 0.16649E-01 0.19328E-01 0.19406E-01 0.16621E-01
 0.14047E-01 0.13963E-01 0.18319E-01 0.30549E-01 0.56395E-01 0.94416E-01 0.12622     0.12588     0.94868E-01 0.56223E-01
 0.25186E-01 0.16202E-01 0.12941E-01 0.13281E-01 0.16007E-01 0.19406E-01 0.20921E-01 0.19351E-01 0.16009E-01 0.13301E-01
 0.12943E-01 0.16172E-01 0.25180E-01 0.41967E-01 0.61825E-01 0.71218E-01 0.61841E-01 0.41880E-01 0.19155E-01 0.13609E-01
 0.11444E-01 0.11984E-01 0.14309E-01 0.17341E-01 0.19354E-01 0.19434E-01 0.17318E-01 0.14326E-01 0.11943E-01 0.11496E-01
 0.13575E-01 0.19171E-01 0.27860E-01 0.35496E-01 0.35321E-01 0.27951E-01 0.13635E-01 0.10926E-01 0.98579E-02 0.10392E-01
 0.12149E-01 0.14341E-01 0.16013E-01 0.16600E-01 0.16015E-01 0.14340E-01 0.12153E-01 0.10376E-01 0.98540E-02 0.10949E-01
 0.13632E-01 0.16950E-01 0.18579E-01 0.16970E-01 0.93278E-02 0.85809E-02 0.84420E-02 0.90853E-02 0.10408E-01 0.11941E-01
 0.13295E-01 0.14043E-01 0.14039E-01 0.13268E-01 0.11966E-01 0.10414E-01 0.90907E-02 0.84087E-02 0.85988E-02 0.93183E-02
 0.10013E-01 0.99923E-02 0.64633E-02 0.67825E-02 0.74055E-02 0.84317E-02 0.98520E-02 0.11476E-01 0.12938E-01 0.13977E-01
 0.14376E-01 0.14006E-01 0.12941E-01 0.11438E-01 0.98534E-02 0.84568E-02 0.74008E-02 0.67720E-02 0.64651E-02 0.63735E-02
 0.49248E-02 0.55491E-02 0.67770E-02 0.85990E-02 0.10926E-01 0.13575E-01 0.16201E-01 0.18326E-01 0.19484E-01 0.19474E-01
 0.18300E-01 0.16232E-01 0.13587E-01 0.10902E-01 0.85909E-02 0.67881E-02 0.55460E-02 0.49258E-02 0.64194E-02 0.72740E-02
 0.10597E-01 0.18621E-01 0.34418E-01 0.59547E-01 0.91531E-01 0.12391     0.14826     0.15731     0.14827     0.12380    
 0.91588E-01 0.59620E-01 0.34395E-01 0.18615E-01 0.10597E-01 0.72725E-02 0.72725E-02 0.72713E-02 0.11003E-01 0.22293E-01
 0.48718E-01 0.96580E-01 0.16307     0.23422     0.29195     0.32365     0.32387     0.29251     0.23394     0.16272    
 0.96762E-01 0.48769E-01 0.22263E-01 0.11004E-01 0.10590E-01 0.79306E-02 0.10593E-01 0.22256E-01 0.55490E-01 0.12696    
 0.23458     0.35152     0.44783     0.50748     0.52683     0.50670     0.44793     0.35241     0.23449     0.12667    
 0.55497E-01 0.22277E-01 0.18657E-01 0.99269E-02 0.99490E-02 0.18632E-01 0.48773E-01 0.12647     0.26519     0.42441    
 0.55387     0.63489     0.67316     0.67341     0.63543     0.55304     0.42465     0.26498     0.12685     0.48662E-01
 0.34437E-01 0.14301E-01 0.10032E-01 0.14293E-01 0.34422E-01 0.96822E-01 0.23467     0.42393     0.58912     0.69455    
 0.74867     0.76463     0.74871     0.69472     0.58907     0.42396     0.23481     0.96648E-01 0.59333E-01 0.21973E-01
 0.11435E-01 0.11500E-01 0.21869E-01 0.59549E-01 0.16272     0.35267     0.55322     0.69456     0.77063     0.80402    
 0.80318     0.77099     0.69405     0.55448     0.35123     0.16341     0.91507E-01 0.32858E-01 0.14445E-01 0.10470E-01
 0.14448E-01 0.32869E-01 0.91570E-01 0.23375     0.44795     0.63559     0.74871     0.80318     0.81953     0.80375    
 0.74852     0.63527     0.44781     0.23411     0.12431     0.45375E-01 0.18647E-01 0.10898E-01 0.10944E-01 0.18544E-01
 0.45582E-01 0.12391     0.29250     0.50640     0.67350     0.76506     0.80377     0.80290     0.76542     0.67277    
 0.50773     0.29154     0.14824     0.56763E-01 0.22884E-01 0.12110E-01 0.96654E-02 0.12130E-01 0.22873E-01 0.56718E-01
 0.14817     0.32425     0.52687     0.67275     0.74856     0.77134     0.74851     0.67296     0.52683     0.32393    
 0.15703     0.63441E-01 0.25980E-01 0.13334E-01 0.95072E-02 0.95174E-02 0.13298E-01 0.26059E-01 0.63320E-01 0.15716    
 0.32355     0.50806     0.63515     0.69421     0.69416     0.63571     0.50686     0.32412     0.14821     0.63398E-01
 0.27136E-01 0.13996E-01 0.96875E-02 0.87355E-02 0.96878E-02 0.13985E-01 0.27136E-01 0.63441E-01 0.14831     0.29154    
 0.44781     0.55432     0.58899     0.55357     0.44781     0.29203     0.12417     0.56685E-01 0.26030E-01 0.13993E-01
 0.97941E-02 0.85994E-02 0.86255E-02 0.97812E-02 0.14013E-01 0.25956E-01 0.56775E-01 0.12418     0.23429     0.35098    
 0.42467     0.42416     0.35206     0.23377     0.91553E-01 0.45480E-01 0.22889E-01 0.13305E-01 0.96878E-02 0.86259E-02
 0.84549E-02 0.86073E-02 0.96868E-02 0.13327E-01 0.22894E-01 0.45379E-01 0.91518E-01 0.16341     0.23464     0.26477    
 0.23469     0.16304     0.59407E-01 0.32873E-01 0.18586E-01 0.12132E-01 0.95087E-02 0.87266E-02 0.86087E-02 0.86354E-02
 0.87179E-02 0.95148E-02 0.12096E-01 0.18668E-01 0.32814E-01 0.59404E-01 0.96595E-01 0.12705     0.12657     0.96827E-01
 0.34415E-01 0.21926E-01 0.14451E-01 0.10912E-01 0.96706E-02 0.95253E-02 0.96890E-02 0.97719E-02 0.96906E-02 0.95265E-02
 0.96737E-02 0.10891E-01 0.14446E-01 0.21975E-01 0.34413E-01 0.48668E-01 0.55511E-01 0.48721E-01 0.18655E-01 0.14296E-01
 0.11472E-01 0.10477E-01 0.10925E-01 0.12096E-01 0.13321E-01 0.14007E-01 0.14006E-01 0.13293E-01 0.12117E-01 0.10937E-01
 0.10482E-01 0.11429E-01 0.14322E-01 0.18641E-01 0.22289E-01 0.22250E-01 0.10592E-01 0.99443E-02 0.10027E-01 0.11460E-01
 0.14445E-01 0.18629E-01 0.22878E-01 0.25986E-01 0.27137E-01 0.26039E-01 0.22886E-01 0.18566E-01 0.14448E-01 0.11494E-01
 0.10021E-01 0.99308E-02 0.10594E-01 0.11008E-01 0.72717E-02 0.79271E-02 0.99373E-02 0.14322E-01 0.21921E-01 0.32809E-01
 0.45482E-01 0.56809E-01 0.63368E-01 0.63328E-01 0.56740E-01 0.45589E-01 0.32825E-01 0.21870E-01 0.14313E-01 0.99518E-02
 0.79236E-02 0.72736E-02 0.88352E-02 0.10528E-01 0.17534E-01 0.36642E-01 0.79841E-01 0.15552     0.25376     0.34774    
 0.41235     0.43496     0.41237     0.34740     0.25391     0.15576     0.79782E-01 0.36629E-01 0.17534E-01 0.10526E-01
 0.10526E-01 0.10525E-01 0.18834E-01 0.46349E-01 0.11552     0.23910     0.38850     0.51710     0.60204     0.64259    
 0.64279     0.60260     0.51683     0.38793     0.23941     0.11563     0.46303E-01 0.18836E-01 0.17525E-01 0.11552E-01
 0.17529E-01 0.46295E-01 0.13152     0.29625     0.48652     0.63282     0.72215     0.76817     0.78202     0.76775    
 0.72225     0.63349     0.48641     0.29587     0.13153     0.46327E-01 0.36700E-01 0.15461E-01 0.15490E-01 0.36654E-01
 0.11563     0.29562     0.52129     0.68740     0.78190     0.83013     0.85088     0.85098     0.83034     0.78148    
 0.68765     0.52106     0.29617     0.11542     0.79882E-01 0.25640E-01 0.15397E-01 0.25631E-01 0.79847E-01 0.23944    
 0.48662     0.68723     0.79950     0.85573     0.88203     0.88966     0.88205     0.85580     0.79949     0.68716    
 0.48681     0.23915     0.15508     0.47183E-01 0.18801E-01 0.18896E-01 0.46969E-01 0.15564     0.38794     0.63363    
 0.78158     0.85576     0.89090     0.90577     0.90550     0.89102     0.85555     0.78220     0.63249     0.38907    
 0.25370     0.84172E-01 0.27355E-01 0.16618E-01 0.27366E-01 0.84156E-01 0.25387     0.51667     0.72225     0.83039    
 0.88205     0.90550     0.91249     0.90568     0.88198     0.83028     0.72215     0.51708     0.34851     0.13334    
 0.42147E-01 0.18002E-01 0.18077E-01 0.41922E-01 0.13393     0.34756     0.60261     0.76760     0.85101     0.88981    
 0.90569     0.90541     0.88993     0.85073     0.76833     0.60159     0.41233     0.18132     0.60714E-01 0.22202E-01
 0.14485E-01 0.22232E-01 0.60678E-01 0.18125     0.41216     0.64313     0.78204     0.85073     0.88199     0.89114    
 0.88198     0.85081     0.78202     0.64283     0.43448     0.21005     0.76491E-01 0.27521E-01 0.13901E-01 0.13919E-01
 0.27447E-01 0.76704E-01 0.20972     0.43471     0.64250     0.76849     0.83024     0.85560     0.85560     0.83045    
 0.76786     0.64299     0.41229     0.20992     0.82724E-01 0.31153E-01 0.14567E-01 0.10868E-01 0.14568E-01 0.31134E-01
 0.82717E-01 0.21004     0.41250     0.60157     0.72217     0.78211     0.79947     0.78174     0.72217     0.60207    
 0.34810     0.18113     0.76618E-01 0.31154E-01 0.15022E-01 0.10011E-01 0.10033E-01 0.15007E-01 0.31189E-01 0.76437E-01
 0.18129     0.34831     0.51722     0.63236     0.68758     0.68737     0.63310     0.51672     0.25380     0.13364    
 0.60729E-01 0.27463E-01 0.14568E-01 0.10033E-01 0.89382E-02 0.10017E-01 0.14564E-01 0.27507E-01 0.60748E-01 0.13335    
 0.25372     0.38906     0.48660     0.52085     0.48664     0.38844     0.15530     0.84171E-01 0.42017E-01 0.22232E-01
 0.13906E-01 0.10861E-01 0.10019E-01 0.10041E-01 0.10853E-01 0.13909E-01 0.22179E-01 0.42181E-01 0.84088E-01 0.15520    
 0.23914     0.29641     0.29578     0.23944     0.79826E-01 0.47089E-01 0.27366E-01 0.18029E-01 0.14493E-01 0.13924E-01
 0.14568E-01 0.14997E-01 0.14569E-01 0.13929E-01 0.14497E-01 0.17994E-01 0.27357E-01 0.47190E-01 0.79822E-01 0.11544    
 0.13155     0.11554     0.36690E-01 0.25635E-01 0.18853E-01 0.16627E-01 0.18044E-01 0.22182E-01 0.27494E-01 0.31173E-01
 0.31177E-01 0.27439E-01 0.22211E-01 0.18068E-01 0.16631E-01 0.18794E-01 0.25671E-01 0.36677E-01 0.46342E-01 0.46286E-01
 0.17529E-01 0.15483E-01 0.15392E-01 0.18839E-01 0.27361E-01 0.42087E-01 0.60699E-01 0.76525E-01 0.82719E-01 0.76662E-01
 0.60717E-01 0.41956E-01 0.27367E-01 0.18888E-01 0.15383E-01 0.15466E-01 0.17531E-01 0.18839E-01 0.10525E-01 0.11548E-01
 0.15475E-01 0.25670E-01 0.47071E-01 0.84070E-01 0.13364     0.18140     0.20985     0.20973     0.18126     0.13396    
 0.84073E-01 0.46974E-01 0.25660E-01 0.15494E-01 0.11543E-01 0.10529E-01 0.11412E-01 0.14284E-01 0.26256E-01 0.60264E-01
 0.14116     0.28055     0.43774     0.55877     0.62752     0.64926     0.62755     0.55842     0.43791     0.28091    
 0.14107     0.60243E-01 0.26257E-01 0.14281E-01 0.14282E-01 0.14280E-01 0.28471E-01 0.77447E-01 0.19895     0.39085    
 0.57359     0.69514     0.76197     0.79099     0.79108     0.76226     0.69501     0.57315     0.39112     0.19909    
 0.77394E-01 0.28471E-01 0.26248E-01 0.16192E-01 0.26252E-01 0.77387E-01 0.22320     0.45227     0.64962     0.76822    
 0.83097     0.86129     0.87029     0.86112     0.83101     0.76853     0.64953     0.45200     0.22320     0.77422E-01
 0.60330E-01 0.23002E-01 0.23034E-01 0.60273E-01 0.19908     0.45186     0.67328     0.79914     0.86304     0.89454    
 0.90789     0.90793     0.89462     0.86287     0.79928     0.67316     0.45226     0.19884     0.14122     0.41374E-01
 0.23381E-01 0.41368E-01 0.14117     0.39107     0.64967     0.79911     0.87239     0.90827     0.92511     0.93006    
 0.92512     0.90830     0.87239     0.79905     0.64980     0.39082     0.28005     0.83895E-01 0.30156E-01 0.30278E-01
 0.83584E-01 0.28082     0.57316     0.76857     0.86291     0.90829     0.93011     0.93935     0.93926     0.93015    
 0.90821     0.86316     0.76802     0.57404     0.43765     0.16257     0.47756E-01 0.27067E-01 0.47778E-01 0.16249    
 0.43786     0.69496     0.83101     0.89463     0.92512     0.93926     0.94349     0.93932     0.92509     0.89460    
 0.83096     0.69518     0.55939     0.26678     0.81599E-01 0.30747E-01 0.30859E-01 0.81242E-01 0.26768     0.55851    
 0.76228     0.86107     0.90794     0.93011     0.93932     0.93923     0.93015     0.90783     0.86136     0.76173    
 0.62752     0.36028     0.12929     0.41283E-01 0.24715E-01 0.41324E-01 0.12922     0.36027     0.62738     0.79124    
 0.87030     0.90784     0.92509     0.93020     0.92509     0.90787     0.87029     0.79110     0.64895     0.41136    
 0.17319     0.56730E-01 0.24579E-01 0.24610E-01 0.56608E-01 0.17353     0.41099     0.64910     0.79094     0.86142    
 0.89459     0.90822     0.90823     0.89465     0.86118     0.79117     0.62751     0.41120     0.19106     0.69110E-01
 0.27301E-01 0.18473E-01 0.27301E-01 0.69087E-01 0.19104     0.41133     0.62767     0.76171     0.83097     0.86313    
 0.87238     0.86297     0.83098     0.76198     0.55898     0.36009     0.17338     0.69126E-01 0.29009E-01 0.16736E-01
 0.16758E-01 0.28992E-01 0.69171E-01 0.17313     0.36018     0.55928     0.69522     0.76798     0.79922     0.79917    
 0.76830     0.69499     0.43778     0.26723     0.12932     0.56636E-01 0.27300E-01 0.16759E-01 0.14134E-01 0.16742E-01
 0.27293E-01 0.56708E-01 0.12937     0.26679     0.43769     0.57404     0.64965     0.67303     0.64968     0.57355    
 0.28038     0.16252     0.81400E-01 0.41318E-01 0.24590E-01 0.18468E-01 0.16744E-01 0.16767E-01 0.18460E-01 0.24589E-01
 0.41250E-01 0.81636E-01 0.16247     0.28014     0.39089     0.45242     0.45198     0.39108     0.14113     0.83759E-01
 0.47772E-01 0.30792E-01 0.24725E-01 0.24611E-01 0.27298E-01 0.28981E-01 0.27299E-01 0.24621E-01 0.24732E-01 0.30739E-01
 0.47759E-01 0.83910E-01 0.14113     0.19886     0.22321     0.19898     0.60316E-01 0.41373E-01 0.30222E-01 0.27075E-01
 0.30809E-01 0.41259E-01 0.56683E-01 0.69140E-01 0.69159E-01 0.56594E-01 0.41292E-01 0.30850E-01 0.27080E-01 0.30147E-01
 0.41414E-01 0.60309E-01 0.77438E-01 0.77380E-01 0.26251E-01 0.23026E-01 0.23374E-01 0.30207E-01 0.47769E-01 0.81477E-01
 0.12927     0.17327     0.19103     0.17348     0.12930     0.81279E-01 0.47779E-01 0.30271E-01 0.23363E-01 0.23006E-01
 0.26255E-01 0.28474E-01 0.14280E-01 0.16189E-01 0.23017E-01 0.41412E-01 0.83730E-01 0.16243     0.26722     0.36035    
 0.41114     0.41100     0.36020     0.26771     0.16240     0.83591E-01 0.41405E-01 0.23039E-01 0.16183E-01 0.14284E-01
 0.14612E-01 0.18834E-01 0.36526E-01 0.87226E-01 0.20554     0.38975     0.56339     0.67544     0.73214     0.74921    
 0.73218     0.67516     0.56353     0.39014     0.20544     0.87196E-01 0.36527E-01 0.18831E-01 0.18833E-01 0.18829E-01
 0.39378E-01 0.11184     0.28035     0.50329     0.67608     0.77539     0.82603     0.84729     0.84733     0.82617    
 0.77534     0.67577     0.50349     0.28048     0.11180     0.39375E-01 0.36517E-01 0.22094E-01 0.36521E-01 0.11180    
 0.31049     0.55940     0.73178     0.82453     0.87151     0.89382     0.90044     0.89374     0.87154     0.82469    
 0.73172     0.55924     0.31049     0.11183     0.87293E-01 0.32553E-01 0.32590E-01 0.87225E-01 0.28047     0.55917    
 0.74823     0.84454     0.89216     0.91554     0.92544     0.92546     0.91557     0.89207     0.84462     0.74817    
 0.55942     0.28025     0.20563     0.60546E-01 0.33878E-01 0.60545E-01 0.20557     0.50339     0.73182     0.84454    
 0.89812     0.92440     0.93687     0.94058     0.93687     0.92442     0.89812     0.84450     0.73190     0.50321    
 0.38928     0.12660     0.45052E-01 0.45213E-01 0.12619     0.39009     0.67578     0.82470     0.89209     0.92441    
 0.94019     0.94696     0.94691     0.94021     0.92437     0.89222     0.82440     0.67640     0.56329     0.24579    
 0.74014E-01 0.41544E-01 0.74048E-01 0.24567     0.56348     0.77533     0.87153     0.91558     0.93687     0.94691    
 0.94995     0.94694     0.93686     0.91557     0.87150     0.77545     0.67583     0.38851     0.13051     0.48865E-01
 0.49028E-01 0.13005     0.38945     0.67518     0.82619     0.89372     0.92547     0.94061     0.94694     0.94690    
 0.94063     0.92542     0.89387     0.82588     0.73216     0.50010     0.20987     0.68387E-01 0.40691E-01 0.68434E-01
 0.20977     0.50015     0.73206     0.84741     0.90044     0.92542     0.93686     0.94023     0.93686     0.92543    
 0.90044     0.84734     0.74904     0.55523     0.28130     0.97928E-01 0.42201E-01 0.42249E-01 0.97770E-01 0.28165    
 0.55497     0.74913     0.84726     0.89389     0.91556     0.92438     0.92438     0.91559     0.89378     0.84738    
 0.73215     0.55510     0.30971     0.12272     0.48524E-01 0.32640E-01 0.48522E-01 0.12271     0.30967     0.55521    
 0.73226     0.82587     0.87151     0.89220     0.89812     0.89212     0.87152     0.82602     0.67550     0.50000    
 0.28148     0.12275     0.52278E-01 0.29889E-01 0.29910E-01 0.52261E-01 0.12279     0.28127     0.49996     0.67579    
 0.77545     0.82440     0.84458     0.84457     0.82455     0.77536     0.56341     0.38897     0.20988     0.97811E-01
 0.48521E-01 0.29911E-01 0.25115E-01 0.29896E-01 0.48509E-01 0.97901E-01 0.20998     0.38852     0.56334     0.67639    
 0.73180     0.74809     0.73182     0.67605     0.38965     0.24569     0.13026     0.68420E-01 0.42221E-01 0.32635E-01
 0.29898E-01 0.29918E-01 0.32632E-01 0.42211E-01 0.68342E-01 0.13055     0.24570     0.38934     0.50333     0.55951    
 0.55926     0.50341     0.20551     0.12642     0.74037E-01 0.48937E-01 0.40703E-01 0.42242E-01 0.48515E-01 0.52256E-01
 0.48514E-01 0.42260E-01 0.40717E-01 0.48858E-01 0.74020E-01 0.12661     0.20551     0.28026     0.31050     0.28037    
 0.87274E-01 0.60554E-01 0.45138E-01 0.41549E-01 0.48953E-01 0.68363E-01 0.97866E-01 0.12274     0.12279     0.97753E-01
 0.68390E-01 0.49017E-01 0.41555E-01 0.45045E-01 0.60597E-01 0.87275E-01 0.11184     0.11179     0.36521E-01 0.32581E-01
 0.33865E-01 0.45125E-01 0.74035E-01 0.13033     0.20984     0.28143     0.30966     0.28162     0.20989     0.13008    
 0.74051E-01 0.45204E-01 0.33853E-01 0.32558E-01 0.36525E-01 0.39379E-01 0.18831E-01 0.22089E-01 0.32571E-01 0.60592E-01
 0.12639     0.24564     0.38897     0.50012     0.55508     0.55497     0.50003     0.38946     0.24558     0.12621    
 0.60593E-01 0.32595E-01 0.22084E-01 0.18834E-01 0.18897E-01 0.24536E-01 0.48477E-01 0.11697     0.26676     0.47040    
 0.63673     0.73445     0.78171     0.79571     0.78173     0.73423     0.63688     0.47077     0.26662     0.11693    
 0.48478E-01 0.24533E-01 0.24534E-01 0.24529E-01 0.51726E-01 0.14767     0.34994     0.57461     0.72671     0.80880    
 0.84957     0.86651     0.86654     0.84967     0.80875     0.72649     0.57480     0.35005     0.14764     0.51718E-01
 0.48465E-01 0.29354E-01 0.48469E-01 0.14765     0.38253     0.62373     0.76921     0.84367     0.88074     0.89830    
 0.90351     0.89825     0.88077     0.84377     0.76915     0.62363     0.38252     0.14767     0.11706     0.44112E-01
 0.44169E-01 0.11694     0.35008     0.62356     0.78161     0.85742     0.89414     0.91209     0.91972     0.91973    
 0.91210     0.89408     0.85749     0.78154     0.62379     0.34980     0.26686     0.83338E-01 0.46891E-01 0.83345E-01
 0.26677     0.57469     0.76923     0.85744     0.89784     0.91723     0.92628     0.92897     0.92629     0.91724    
 0.89784     0.85741     0.76929     0.57454     0.46993     0.17360     0.63845E-01 0.64073E-01 0.17306     0.47078    
 0.72648     0.84377     0.89410     0.91724     0.92799     0.93238     0.93235     0.92801     0.91721     0.89419    
 0.84356     0.72697     0.63669     0.32321     0.10681     0.60713E-01 0.10686     0.32305     0.63686     0.80875    
 0.88077     0.91211     0.92629     0.93235     0.93405     0.93237     0.92628     0.91210     0.88075     0.80883    
 0.73473     0.48118     0.18715     0.73626E-01 0.73867E-01 0.18656     0.48208     0.73423     0.84968     0.89823    
 0.91973     0.92898     0.93237     0.93234     0.92900     0.91969     0.89833     0.84947     0.78172     0.59169    
 0.29196     0.10496     0.64023E-01 0.10502     0.29184     0.59177     0.78164     0.86659     0.90351     0.91970    
 0.92628     0.92802     0.92628     0.91971     0.90351     0.86654     0.79559     0.64302     0.37940     0.15015    
 0.68713E-01 0.68792E-01 0.14995     0.37972     0.64284     0.79564     0.86649     0.89834     0.91210     0.91721    
 0.91722     0.91212     0.89827     0.86656     0.78173     0.64291     0.41258     0.18664     0.79925E-01 0.55665E-01
 0.79921E-01 0.18665     0.41252     0.64302     0.78179     0.84946     0.88076     0.89417     0.89784     0.89412    
 0.88076     0.84956     0.73447     0.59161     0.37956     0.18669     0.86052E-01 0.51993E-01 0.52012E-01 0.86035E-01
 0.18673     0.37938     0.59155     0.73472     0.80882     0.84357     0.85746     0.85746     0.84367     0.80879    
 0.63674     0.48164     0.29200     0.15001     0.79920E-01 0.52012E-01 0.44650E-01 0.52002E-01 0.79898E-01 0.15013    
 0.29210     0.48118     0.63673     0.72694     0.76922     0.78150     0.76924     0.72669     0.47035     0.32314    
 0.18683     0.10498     0.68750E-01 0.55660E-01 0.52002E-01 0.52014E-01 0.55668E-01 0.68719E-01 0.10490     0.18717    
 0.32315     0.47000     0.57467     0.62381     0.62365     0.57468     0.26674     0.17335     0.10682     0.73738E-01
 0.64046E-01 0.68769E-01 0.79910E-01 0.86044E-01 0.79901E-01 0.68805E-01 0.64063E-01 0.73617E-01 0.10682     0.17359    
 0.26671     0.34984     0.38255     0.34995     0.11701     0.83347E-01 0.63966E-01 0.60730E-01 0.73754E-01 0.10492    
 0.15007     0.18665     0.18674     0.14992     0.10495     0.73858E-01 0.60724E-01 0.63847E-01 0.83402E-01 0.11703    
 0.14767     0.14762     0.48474E-01 0.44150E-01 0.46879E-01 0.63953E-01 0.10682     0.18688     0.29195     0.37956    
 0.41250     0.37973     0.29199     0.18658     0.10687     0.64057E-01 0.46858E-01 0.44122E-01 0.48478E-01 0.51725E-01
 0.24531E-01 0.29346E-01 0.44141E-01 0.83384E-01 0.17331     0.32312     0.48164     0.59166     0.64293     0.64281    
 0.59164     0.48209     0.32298     0.17310     0.83405E-01 0.44168E-01 0.29342E-01 0.24535E-01 0.24441E-01 0.31532E-01
 0.61977E-01 0.14781     0.32072     0.52802     0.68123     0.76680     0.80736     0.81930     0.80735     0.76663    
 0.68143     0.52831     0.32050     0.14778     0.61982E-01 0.31530E-01 0.31531E-01 0.31525E-01 0.65197E-01 0.18071    
 0.40061     0.61511     0.74925     0.81922     0.85337     0.86744     0.86747     0.85344     0.81915     0.74911    
 0.61531     0.40069     0.18068     0.65190E-01 0.61965E-01 0.38092E-01 0.61969E-01 0.18070     0.43076     0.65439    
 0.77908     0.84033     0.86969     0.88305     0.88690     0.88301     0.86973     0.84039     0.77900     0.65434    
 0.43076     0.18072     0.14793     0.57940E-01 0.58028E-01 0.14776     0.40076     0.65427     0.78736     0.84707    
 0.87313     0.88356     0.88697     0.88697     0.88357     0.87308     0.84715     0.78728     0.65448     0.40043    
 0.32073     0.11012     0.63109E-01 0.11014     0.32064     0.61522     0.77906     0.84711     0.87307     0.87997    
 0.87898     0.87763     0.87899     0.87997     0.87306     0.84708     0.77911     0.61512     0.52758     0.22382    
 0.87711E-01 0.88013E-01 0.22319     0.52837     0.74908     0.84040     0.87309     0.87997     0.87429     0.86697    
 0.86693     0.87431     0.87995     0.87316     0.84023     0.74947     0.68129     0.39300     0.14723     0.86062E-01
 0.14730     0.39283     0.68143     0.81915     0.86973     0.88357     0.87899     0.86693     0.86052     0.86695    
 0.87898     0.88356     0.86971     0.81920     0.76701     0.55203     0.25027     0.10672     0.10704     0.24962    
 0.55279     0.76664     0.85344     0.88299     0.88698     0.87764     0.86695     0.86693     0.87766     0.88695    
 0.88307     0.85329     0.80734     0.65469     0.37166     0.15212     0.96438E-01 0.15218     0.37154     0.65478    
 0.80728     0.86752     0.88690     0.88695     0.87898     0.87432     0.87897     0.88696     0.88690     0.86748    
 0.81921     0.70066     0.46443     0.21241     0.10585     0.10596     0.21219     0.46469     0.70053     0.81923    