       N       E                     dE             d eps       ncg     rms          rms(c)
DAV:   1     0.191420474742E+03    0.19142E+03   -0.14846E+04  1232   0.128E+03
DAV:   2    -0.294461524096E+02   -0.22087E+03   -0.21440E+03  1660   0.267E+02
DAV:   3    -0.463227862329E+02   -0.16877E+02   -0.16790E+02  1622   0.720E+01
DAV:   4    -0.467713403589E+02   -0.44855E+00   -0.44785E+00  1664   0.129E+01
DAV:   5    -0.467835527695E+02   -0.12212E-01   -0.12209E-01  1688   0.200E+00    0.973E+00
RMM:   6    -0.443989884759E+02    0.23846E+01   -0.24126E+01  1380   0.195E+01    0.334E+00
RMM:   7    -0.436723075449E+02    0.72668E+00   -0.19162E+00  1344   0.558E+00    0.179E+00
RMM:   8    -0.436144238132E+02    0.57884E-01   -0.84259E-01  1397   0.328E+00    0.812E-01
RMM:   9    -0.436045649946E+02    0.98588E-02   -0.26994E-01  1447   0.217E+00    0.547E-01
RMM:  10    -0.435897691395E+02    0.14796E-01   -0.56141E-02  1457   0.103E+00    0.604E-02
RMM:  11    -0.435899918987E+02   -0.22276E-03   -0.32071E-03  1605   0.208E-01    0.284E-02
RMM:  12    -0.435900851308E+02   -0.93232E-04   -0.33479E-04  1584   0.789E-02    0.154E-02
RMM:  13    -0.435901001167E+02   -0.14986E-04   -0.25858E-04  1617   0.621E-02    0.191E-02
RMM:  14    -0.435900852818E+02    0.14835E-04   -0.70954E-05  1548   0.355E-02    0.180E-03
RMM:  15    -0.435900863254E+02   -0.10436E-05   -0.12983E-05  1362   0.109E-02    0.383E-03
RMM:  16    -0.435900856303E+02    0.69501E-06   -0.24744E-06  1018   0.775E-03
   1 F= -.45045945E+02 E0= -.45045945E+02  d E =0.000000E+00
