PROCAR lm decomposed
# of k-points:   28         # of bands:   22         # of ions:    6

 k-point     1 :    0.00000000 0.00000000 0.00000000     weight = 0.00333333

band     1 # energy   -9.91043481 # occ.  2.00000000
 
ion      s     py     pz     px    dxy    dyz    dz2    dxz  x2-y2    tot
    1  0.064  0.000  0.000  0.000  0.000  0.000  0.000  0.000  0.000  0.064
    2  0.064  0.000  0.000  0.000  0.000  0.000  0.000  0.000  0.000  0.064
    3  0.137  0.000  0.002  0.000  0.000  0.000  0.000  0.000  0.000  0.140
    4  0.137  0.000  0.002  0.000  0.000  0.000  0.000  0.000  0.000  0.140
    5  0.137  0.000  0.002  0.000  0.000  0.000  0.000  0.000  0.000  0.140
    6  0.137  0.000  0.002  0.000  0.000  0.000  0.000  0.000  0.000  0.140
tot    0.678  0.000  0.009  0.000  0.000  0.000  0.000  0.000  0.000  0.687
 
band     2 # energy   -9.81112214 # occ.  2.00000000
 
ion      s     py     pz     px    dxy    dyz    dz2    dxz  x2-y2    tot
    1  0.067  0.000  0.000  0.000  0.000  0.000  0.000  0.000  0.000  0.067
    2  0.067  0.000  0.000  0.000  0.000  0.000  0.000  0.000  0.000  0.067
    3  0.138  0.000  0.003  0.000  0.000  0.000  0.000  0.000  0.000  0.141
    4  0.138  0.000  0.003  0.000  0.000  0.000  0.000  0.000  0.000  0.141
    5  0.138  0.000  0.003  0.000  0.000  0.000  0.000  0.000  0.000  0.141
    6  0.138  0.000  0.003  0.000  0.000  0.000  0.000  0.000  0.000  0.141
tot    0.686  0.000  0.011  0.000  0.000  0.000  0.000  0.000  0.000  0.698
 
band     3 # energy   -8.72267804 # occ.  2.00000000
 
ion      s     py     pz     px    dxy    dyz    dz2    dxz  x2-y2    tot
    1  0.000  0.000  0.029  0.000  0.000  0.000  0.000  0.000  0.000  0.029
    2  0.000  0.000  0.029  0.000  0.000  0.000  0.000  0.000  0.000  0.029
    3  0.156  0.000  0.000  0.000  0.000  0.000  0.000  0.000  0.000  0.156
    4  0.156  0.000  0.000  0.000  0.000  0.000  0.000  0.000  0.000  0.156
    5  0.156  0.000  0.000  0.000  0.000  0.000  0.000  0.000  0.000  0.156
    6  0.156  0.000  0.000  0.000  0.000  0.000  0.000  0.000  0.000  0.156
tot    0.624  0.000  0.058  0.000  0.000  0.000  0.000  0.000  0.000  0.681
 
band     4 # energy   -8.55468186 # occ.  2.00000000
 
ion      s     py     pz     px    dxy    dyz    dz2    dxz  x2-y2    tot
    1  0.000  0.000  0.030  0.000  0.000  0.000  0.000  0.000  0.000  0.030
    2  0.000  0.000  0.030  0.000  0.000  0.000  0.000  0.000  0.000  0.030
    3  0.159  0.000  0.000  0.000  0.000  0.000  0.000  0.000  0.000  0.160
    4  0.159  0.000  0.000  0.000  0.000  0.000  0.000  0.000  0.000  0.160
    5  0.159  0.000  0.000  0.000  0.000  0.000  0.000  0.000  0.000  0.160
    6  0.159  0.000  0.000  0.000  0.000  0.000  0.000  0.000  0.000  0.160
tot    0.638  0.000  0.062  0.000  0.000  0.000  0.000  0.000  0.000  0.700
 
band     5 # energy   -1.64879134 # occ.  2.00000000
 
ion      s     py     pz     px    dxy    dyz    dz2    dxz  x2-y2    tot
    1  0.065  0.000  0.000  0.000  0.000  0.000  0.088  0.000  0.000  0.153
    2  0.065  0.000  0.000  0.000  0.000  0.000  0.088  0.000  0.000  0.153
    3  0.007  0.000  0.065  0.000  0.000  0.000  0.000  0.000  0.000  0.071
    4  0.007  0.000  0.065  0.000  0.000  0.000  0.000  0.000  0.000  0.071
    5  0.007  0.000  0.065  0.000  0.000  0.000  0.000  0.000  0.000  0.071
    6  0.007  0.000  0.065  0.000  0.000  0.000  0.000  0.000  0.000  0.071
tot    0.158  0.000  0.258  0.000  0.000  0.000  0.175  0.000  0.000  0.591
 
band     6 # energy   -1.12517172 # occ.  2.00000000
 
ion      s     py     pz     px    dxy    dyz    dz2    dxz  x2-y2    tot
    1  0.063  0.000  0.000  0.000  0.000  0.000  0.119  0.000  0.000  0.182
    2  0.063  0.000  0.000  0.000  0.000  0.000  0.119  0.000  0.000  0.182
    3  0.011  0.000  0.061  0.000  0.000  0.000  0.000  0.000  0.000  0.072
    4  0.011  0.000  0.061  0.000  0.000  0.000  0.000  0.000  0.000  0.072
    5  0.011  0.000  0.061  0.000  0.000  0.000  0.000  0.000  0.000  0.072
    6  0.011  0.000  0.061  0.000  0.000  0.000  0.000  0.000  0.000  0.072
tot    0.171  0.000  0.242  0.000  0.000  0.000  0.237  0.000  0.000  0.650
 
band     7 # energy    1.56269218 # occ.  2.00000000
 
ion      s     py     pz     px    dxy    dyz    dz2    dxz  x2-y2    tot
    1  0.000  0.000  0.000  0.003  0.287  0.000  0.000  0.000  0.011  0.301
    2  0.000  0.000  0.000  0.003  0.286  0.000  0.000  0.000  0.011  0.301
    3  0.000  0.002  0.000  0.055  0.000  0.000  0.000  0.000  0.000  0.057
    4  0.000  0.002  0.000  0.055  0.000  0.000  0.000  0.000  0.000  0.057
    5  0.000  0.002  0.000  0.055  0.000  0.000  0.000  0.000  0.000  0.057
    6  0.000  0.002  0.000  0.055  0.000  0.000  0.000  0.000  0.000  0.057
tot    0.000  0.009  0.000  0.226  0.573  0.000  0.000  0.000  0.022  0.830
 
band     8 # energy    1.56269723 # occ.  2.00000000
 
ion      s     py     pz     px    dxy    dyz    dz2    dxz  x2-y2    tot
    1  0.000  0.003  0.000  0.000  0.011  0.000  0.000  0.000  0.287  0.301
    2  0.000  0.003  0.000  0.000  0.011  0.000  0.000  0.000  0.286  0.301
    3  0.000  0.055  0.000  0.002  0.000  0.000  0.000  0.000  0.000  0.057
    4  0.000  0.055  0.000  0.002  0.000  0.000  0.000  0.000  0.000  0.057
    5  0.000  0.055  0.000  0.002  0.000  0.000  0.000  0.000  0.000  0.057
    6  0.000  0.055  0.000  0.002  0.000  0.000  0.000  0.000  0.000  0.057
tot    0.000  0.226  0.000  0.009  0.022  0.000  0.000  0.000  0.573  0.830
 
band     9 # energy    1.56673082 # occ.  2.00000000
 
ion      s     py     pz     px    dxy    dyz    dz2    dxz  x2-y2    tot
    1  0.000  0.000  0.000  0.003  0.288  0.000  0.000  0.000  0.011  0.302
    2  0.000  0.000  0.000  0.003  0.288  0.000  0.000  0.000  0.011  0.302
    3  0.000  0.002  0.000  0.055  0.000  0.000  0.000  0.000  0.000  0.057
    4  0.000  0.002  0.000  0.055  0.000  0.000  0.000  0.000  0.000  0.057
    5  0.000  0.002  0.000  0.055  0.000  0.000  0.000  0.000  0.000  0.057
    6  0.000  0.002  0.000  0.055  0.000  0.000  0.000  0.000  0.000  0.057
tot    0.000  0.008  0.000  0.225  0.575  0.000  0.000  0.000  0.022  0.831
 
band    10 # energy    1.56673594 # occ.  2.00000000
 
ion      s     py     pz     px    dxy    dyz    dz2    dxz  x2-y2    tot
    1  0.000  0.003  0.000  0.000  0.011  0.000  0.000  0.000  0.288  0.302
    2  0.000  0.003  0.000  0.000  0.011  0.000  0.000  0.000  0.288  0.302
    3  0.000  0.055  0.000  0.002  0.000  0.000  0.000  0.000  0.000  0.057
    4  0.000  0.055  0.000  0.002  0.000  0.000  0.000  0.000  0.000  0.057
    5  0.000  0.055  0.000  0.002  0.000  0.000  0.000  0.000  0.000  0.057
    6  0.000  0.055  0.000  0.002  0.000  0.000  0.000  0.000  0.000  0.057
tot    0.000  0.225  0.000  0.009  0.022  0.000  0.000  0.000  0.575  0.831
 
band    11 # energy    1.83322420 # occ.  2.00000000
 
ion      s     py     pz     px    dxy    dyz    dz2    dxz  x2-y2    tot
    1  0.000  0.000  0.027  0.000  0.000  0.000  0.000  0.000  0.000  0.027
    2  0.000  0.000  0.027  0.000  0.000  0.000  0.000  0.000  0.000  0.027
    3  0.001  0.000  0.112  0.000  0.000  0.000  0.000  0.000  0.000  0.113
    4  0.001  0.000  0.112  0.000  0.000  0.000  0.000  0.000  0.000  0.113
    5  0.001  0.000  0.112  0.000  0.000  0.000  0.000  0.000  0.000  0.113
    6  0.001  0.000  0.112  0.000  0.000  0.000  0.000  0.000  0.000  0.113
tot    0.004  0.000  0.503  0.000  0.000  0.000  0.000  0.000  0.000  0.507
 
band    12 # energy    2.66918322 # occ.  2.00000000
 
ion      s     py     pz     px    dxy    dyz    dz2    dxz  x2-y2    tot
    1  0.000  0.000  0.000  0.000  0.000  0.251  0.000  0.021  0.000  0.272
    2  0.000  0.000  0.000  0.000  0.000  0.251  0.000  0.020  0.000  0.271
    3  0.000  0.070  0.000  0.006  0.000  0.000  0.000  0.000  0.000  0.076
    4  0.000  0.070  0.000  0.006  0.000  0.000  0.000  0.000  0.000  0.076
    5  0.000  0.070  0.000  0.006  0.000  0.000  0.000  0.000  0.000  0.076
    6  0.000  0.070  0.000  0.006  0.000  0.000  0.000  0.000  0.000  0.076
tot    0.000  0.281  0.000  0.023  0.000  0.502  0.000  0.041  0.000  0.846
 
band    13 # energy    2.66921521 # occ.  2.00000000
 
ion      s     py     pz     px    dxy    dyz    dz2    dxz  x2-y2    tot
    1  0.000  0.000  0.000  0.000  0.000  0.020  0.000  0.251  0.000  0.271
    2  0.000  0.000  0.000  0.000  0.000  0.020  0.000  0.251  0.000  0.272
    3  0.000  0.006  0.000  0.070  0.000  0.000  0.000  0.000  0.000  0.076
    4  0.000  0.006  0.000  0.070  0.000  0.000  0.000  0.000  0.000  0.076
    5  0.000  0.006  0.000  0.070  0.000  0.000  0.000  0.000  0.000  0.076
    6  0.000  0.006  0.000  0.070  0.000  0.000  0.000  0.000  0.000  0.076
tot    0.000  0.023  0.000  0.281  0.000  0.041  0.000  0.502  0.000  0.846
 
band    14 # energy    2.68338865 # occ.  2.00000000
 
ion      s     py     pz     px    dxy    dyz    dz2    dxz  x2-y2    tot
    1  0.000  0.000  0.000  0.000  0.000  0.253  0.000  0.021  0.000  0.273
    2  0.000  0.000  0.000  0.000  0.000  0.253  0.000  0.021  0.000  0.274
    3  0.000  0.070  0.000  0.006  0.000  0.000  0.000  0.000  0.000  0.075
    4  0.000  0.070  0.000  0.006  0.000  0.000  0.000  0.000  0.000  0.075
    5  0.000  0.070  0.000  0.006  0.000  0.000  0.000  0.000  0.000  0.075
    6  0.000  0.070  0.000  0.006  0.000  0.000  0.000  0.000  0.000  0.075
tot    0.000  0.279  0.000  0.023  0.000  0.506  0.000  0.041  0.000  0.849
 
band    15 # energy    2.68342066 # occ.  2.00000000
 
ion      s     py     pz     px    dxy    dyz    dz2    dxz  x2-y2    tot
    1  0.000  0.000  0.000  0.000  0.000  0.021  0.000  0.253  0.000  0.274
    2  0.000  0.000  0.000  0.000  0.000  0.021  0.000  0.253  0.000  0.274
    3  0.000  0.006  0.000  0.070  0.000  0.000  0.000  0.000  0.000  0.075
    4  0.000  0.006  0.000  0.070  0.000  0.000  0.000  0.000  0.000  0.075
    5  0.000  0.006  0.000  0.070  0.000  0.000  0.000  0.000  0.000  0.075
    6  0.000  0.006  0.000  0.070  0.000  0.000  0.000  0.000  0.000  0.075
tot    0.000  0.023  0.000  0.279  0.000  0.041  0.000  0.506  0.000  0.849
 
band    16 # energy    3.22085918 # occ.  2.00000000
 
ion      s     py     pz     px    dxy    dyz    dz2    dxz  x2-y2    tot
    1  0.000  0.000  0.029  0.000  0.000  0.000  0.000  0.000  0.000  0.029
    2  0.000  0.000  0.029  0.000  0.000  0.000  0.000  0.000  0.000  0.029
    3  0.000  0.000  0.143  0.000  0.000  0.000  0.000  0.000  0.000  0.143
    4  0.000  0.000  0.143  0.000  0.000  0.000  0.000  0.000  0.000  0.143
    5  0.000  0.000  0.143  0.000  0.000  0.000  0.000  0.000  0.000  0.143
    6  0.000  0.000  0.143  0.000  0.000  0.000  0.000  0.000  0.000  0.143
tot    0.000  0.000  0.629  0.000  0.000  0.000  0.000  0.000  0.000  0.630
 
band    17 # energy    3.86916881 # occ.  2.00000000
 
ion      s     py     pz     px    dxy    dyz    dz2    dxz  x2-y2    tot
    1  0.004  0.000  0.000  0.000  0.000  0.000  0.308  0.000  0.000  0.312
    2  0.004  0.000  0.000  0.000  0.000  0.000  0.308  0.000  0.000  0.312
    3  0.000  0.000  0.027  0.000  0.000  0.000  0.000  0.000  0.000  0.027
    4  0.000  0.000  0.027  0.000  0.000  0.000  0.000  0.000  0.000  0.027
    5  0.000  0.000  0.027  0.000  0.000  0.000  0.000  0.000  0.000  0.027
    6  0.000  0.000  0.027  0.000  0.000  0.000  0.000  0.000  0.000  0.027
tot    0.009  0.000  0.107  0.000  0.000  0.000  0.616  0.000  0.000  0.732
 
band    18 # energy    4.62977395 # occ.  2.00000000
 
ion      s     py     pz     px    dxy    dyz    dz2    dxz  x2-y2    tot
    1  0.014  0.000  0.000  0.000  0.000  0.000  0.300  0.000  0.000  0.314
    2  0.014  0.000  0.000  0.000  0.000  0.000  0.300  0.000  0.000  0.314
    3  0.004  0.000  0.046  0.000  0.000  0.000  0.000  0.000  0.000  0.050
    4  0.004  0.000  0.046  0.000  0.000  0.000  0.000  0.000  0.000  0.050
    5  0.004  0.000  0.046  0.000  0.000  0.000  0.000  0.000  0.000  0.050
    6  0.004  0.000  0.046  0.000  0.000  0.000  0.000  0.000  0.000  0.050
tot    0.045  0.000  0.185  0.000  0.000  0.000  0.600  0.000  0.000  0.829
 
band    19 # energy    6.94751341 # occ.  0.00000000
 
ion      s     py     pz     px    dxy    dyz    dz2    dxz  x2-y2    tot
    1  0.000  0.000  0.000  0.000  0.001  0.088  0.000  0.079  0.001  0.169
    2  0.000  0.000  0.000  0.000  0.000  0.041  0.000  0.144  0.001  0.186
    3  0.000  0.029  0.000  0.072  0.000  0.000  0.000  0.000  0.000  0.101
    4  0.000  0.058  0.000  0.045  0.000  0.000  0.000  0.000  0.000  0.104
    5  0.000  0.037  0.000  0.038  0.000  0.000  0.000  0.000  0.000  0.075
    6  0.000  0.015  0.000  0.079  0.000  0.000  0.000  0.000  0.000  0.094
tot    0.000  0.140  0.000  0.234  0.001  0.129  0.000  0.222  0.002  0.729
 
band    20 # energy    6.96276877 # occ.  0.00000000
 
ion      s     py     pz     px    dxy    dyz    dz2    dxz  x2-y2    tot
    1  0.000  0.000  0.000  0.001  0.023  0.035  0.000  0.089  0.002  0.150
    2  0.000  0.000  0.000  0.000  0.003  0.155  0.000  0.044  0.000  0.203
    3  0.000  0.077  0.000  0.020  0.000  0.000  0.000  0.000  0.000  0.098
    4  0.000  0.011  0.000  0.020  0.000  0.000  0.000  0.000  0.000  0.031
    5  0.000  0.028  0.000  0.108  0.000  0.000  0.000  0.000  0.000  0.136
    6  0.000  0.085  0.000  0.030  0.000  0.000  0.000  0.000  0.000  0.116
tot    0.000  0.202  0.000  0.180  0.026  0.190  0.000  0.134  0.002  0.733
 
band    21 # energy    7.00063138 # occ.  0.00000000
 
ion      s     py     pz     px    dxy    dyz    dz2    dxz  x2-y2    tot
    1  0.000  0.001  0.000  0.000  0.002  0.077  0.000  0.087  0.016  0.183
    2  0.000  0.002  0.000  0.002  0.025  0.096  0.000  0.001  0.039  0.164
    3  0.000  0.020  0.000  0.021  0.000  0.000  0.000  0.000  0.000  0.041
    4  0.000  0.009  0.000  0.058  0.000  0.000  0.000  0.000  0.000  0.067
    5  0.000  0.094  0.000  0.036  0.000  0.000  0.000  0.000  0.000  0.131
    6  0.000  0.137  0.000  0.018  0.000  0.000  0.000  0.000  0.000  0.155
tot    0.000  0.265  0.000  0.135  0.027  0.172  0.000  0.088  0.055  0.741
 
band    22 # energy    7.16314762 # occ.  0.00000000
 
ion      s     py     pz     px    dxy    dyz    dz2    dxz  x2-y2    tot
    1  0.000  0.007  0.000  0.001  0.017  0.004  0.000  0.007  0.115  0.152
    2  0.000  0.001  0.000  0.008  0.127  0.002  0.000  0.008  0.023  0.170
    3  0.000  0.022  0.000  0.071  0.000  0.000  0.000  0.000  0.000  0.093
    4  0.000  0.063  0.000  0.009  0.000  0.000  0.000  0.000  0.000  0.072
    5  0.000  0.117  0.000  0.025  0.000  0.000  0.000  0.000  0.000  0.142
    6  0.000  0.015  0.000  0.131  0.000  0.000  0.000  0.000  0.000  0.146
tot    0.000  0.225  0.000  0.245  0.144  0.006  0.000  0.015  0.138  0.774
 

 k-point     2 :    0.10000000 0.00000000 0.00000000     weight = 0.02000000

band     1 # energy   -9.77163681 # occ.  2.00000000
 
ion      s     py     pz     px    dxy    dyz    dz2    dxz  x2-y2    tot
    1  0.060  0.001  0.000  0.002  0.001  0.000  0.000  0.000  0.000  0.063
    2  0.060  0.001  0.000  0.002  0.001  0.000  0.000  0.000  0.000  0.063
    3  0.139  0.000  0.002  0.000  0.000  0.000  0.000  0.000  0.000  0.141
    4  0.139  0.000  0.002  0.000  0.000  0.000  0.000  0.000  0.000  0.141
    5  0.139  0.000  0.002  0.000  0.000  0.000  0.000  0.000  0.000  0.141
    6  0.139  0.000  0.002  0.000  0.000  0.000  0.000  0.000  0.000  0.141
tot    0.675  0.001  0.009  0.004  0.001  0.000  0.000  0.000  0.000  0.691
 
band     2 # energy   -9.67353068 # occ.  2.00000000
 
ion      s     py     pz     px    dxy    dyz    dz2    dxz  x2-y2    tot
    1  0.063  0.001  0.000  0.002  0.001  0.000  0.000  0.000  0.000  0.066
    2  0.063  0.001  0.000  0.002  0.001  0.000  0.000  0.000  0.000  0.066
    3  0.139  0.000  0.003  0.000  0.000  0.000  0.000  0.000  0.000  0.142
    4  0.139  0.000  0.003  0.000  0.000  0.000  0.000  0.000  0.000  0.142
    5  0.139  0.000  0.003  0.000  0.000  0.000  0.000  0.000  0.000  0.142
    6  0.139  0.000  0.003  0.000  0.000  0.000  0.000  0.000  0.000  0.142
tot    0.683  0.001  0.011  0.004  0.001  0.000  0.000  0.000  0.000  0.702
 
band     3 # energy   -8.65348556 # occ.  2.00000000
 
ion      s     py     pz     px    dxy    dyz    dz2    dxz  x2-y2    tot
    1  0.000  0.000  0.027  0.000  0.000  0.001  0.000  0.003  0.000  0.031
    2  0.000  0.000  0.027  0.000  0.000  0.001  0.000  0.003  0.000  0.031
    3  0.156  0.000  0.000  0.000  0.000  0.000  0.000  0.000  0.000  0.157
    4  0.156  0.000  0.000  0.000  0.000  0.000  0.000  0.000  0.000  0.157
    5  0.156  0.000  0.000  0.000  0.000  0.000  0.000  0.000  0.000  0.157
    6  0.156  0.000  0.000  0.000  0.000  0.000  0.000  0.000  0.000  0.157
tot    0.625  0.000  0.055  0.000  0.000  0.002  0.000  0.006  0.000  0.688
 
band     4 # energy   -8.49274696 # occ.  2.00000000
 
ion      s     py     pz     px    dxy    dyz    dz2    dxz  x2-y2    tot
    1  0.000  0.000  0.029  0.000  0.000  0.001  0.000  0.003  0.000  0.033
    2  0.000  0.000  0.029  0.000  0.000  0.001  0.000  0.003  0.000  0.033
    3  0.160  0.000  0.000  0.000  0.000  0.000  0.000  0.000  0.000  0.160
    4  0.160  0.000  0.000  0.000  0.000  0.000  0.000  0.000  0.000  0.160
    5  0.160  0.000  0.000  0.000  0.000  0.000  0.000  0.000  0.000  0.160
    6  0.160  0.000  0.000  0.000  0.000  0.000  0.000  0.000  0.000  0.160
tot    0.639  0.000  0.058  0.000  0.000  0.002  0.000  0.006  0.000  0.706
 
band     5 # energy   -1.48654477 # occ.  2.00000000
 
ion      s     py     pz     px    dxy    dyz    dz2    dxz  x2-y2    tot
    1  0.059  0.001  0.000  0.003  0.004  0.000  0.084  0.000  0.001  0.151
    2  0.059  0.001  0.000  0.003  0.004  0.000  0.084  0.000  0.001  0.151
    3  0.006  0.000  0.066  0.000  0.000  0.000  0.000  0.000  0.000  0.073
    4  0.006  0.000  0.066  0.000  0.000  0.000  0.000  0.000  0.000  0.073
    5  0.006  0.000  0.066  0.000  0.000  0.000  0.000  0.000  0.000  0.073
    6  0.006  0.000  0.066  0.000  0.000  0.000  0.000  0.000  0.000  0.073
tot    0.142  0.002  0.264  0.007  0.007  0.000  0.168  0.000  0.002  0.593
 
band     6 # energy   -0.96635376 # occ.  2.00000000
 
ion      s     py     pz     px    dxy    dyz    dz2    dxz  x2-y2    tot
    1  0.056  0.001  0.000  0.003  0.004  0.000  0.114  0.000  0.001  0.180
    2  0.056  0.001  0.000  0.003  0.004  0.000  0.114  0.000  0.001  0.180
    3  0.010  0.000  0.062  0.001  0.000  0.000  0.000  0.000  0.000  0.073
    4  0.010  0.000  0.062  0.001  0.000  0.000  0.000  0.000  0.000  0.073
    5  0.010  0.000  0.062  0.001  0.000  0.000  0.000  0.000  0.000  0.073
    6  0.010  0.000  0.062  0.001  0.000  0.000  0.000  0.000  0.000  0.073
tot    0.153  0.003  0.249  0.008  0.009  0.000  0.227  0.000  0.003  0.652
 
band     7 # energy    1.25019572 # occ.  2.00000000
 
ion      s     py     pz     px    dxy    dyz    dz2    dxz  x2-y2    tot
    1  0.011  0.001  0.000  0.003  0.196  0.000  0.000  0.000  0.065  0.277
    2  0.011  0.001  0.000  0.003  0.196  0.000  0.000  0.000  0.065  0.277
    3  0.003  0.014  0.000  0.043  0.000  0.000  0.000  0.000  0.000  0.061
    4  0.003  0.014  0.000  0.043  0.000  0.000  0.000  0.000  0.000  0.061
    5  0.003  0.014  0.000  0.043  0.000  0.000  0.000  0.000  0.000  0.061
    6  0.003  0.014  0.000  0.043  0.000  0.000  0.000  0.000  0.000  0.061
tot    0.032  0.060  0.001  0.180  0.393  0.000  0.001  0.000  0.131  0.797
 
band     8 # energy    1.25874977 # occ.  2.00000000
 
ion      s     py     pz     px    dxy    dyz    dz2    dxz  x2-y2    tot
    1  0.011  0.001  0.000  0.003  0.197  0.000  0.000  0.000  0.066  0.278
    2  0.011  0.001  0.000  0.003  0.197  0.000  0.000  0.000  0.066  0.279
    3  0.003  0.014  0.000  0.043  0.000  0.000  0.000  0.000  0.000  0.060
    4  0.003  0.014  0.000  0.043  0.000  0.000  0.000  0.000  0.000  0.060
    5  0.003  0.014  0.000  0.043  0.000  0.000  0.000  0.000  0.000  0.060
    6  0.003  0.014  0.000  0.043  0.000  0.000  0.000  0.000  0.000  0.060
tot    0.032  0.060  0.001  0.179  0.395  0.000  0.001  0.000  0.132  0.798
 
band     9 # energy    1.46467299 # occ.  2.00000000
 
ion      s     py     pz     px    dxy    dyz    dz2    dxz  x2-y2    tot
    1  0.000  0.000  0.009  0.000  0.000  0.026  0.000  0.078  0.000  0.113
    2  0.000  0.000  0.009  0.000  0.000  0.026  0.000  0.078  0.000  0.113
    3  0.001  0.005  0.078  0.014  0.000  0.000  0.000  0.000  0.000  0.097
    4  0.001  0.005  0.078  0.014  0.000  0.000  0.000  0.000  0.000  0.097
    5  0.001  0.005  0.078  0.014  0.000  0.000  0.000  0.000  0.000  0.097
    6  0.001  0.005  0.078  0.014  0.000  0.000  0.000  0.000  0.000  0.097
tot    0.002  0.019  0.328  0.056  0.000  0.052  0.000  0.156  0.000  0.614
 
band    10 # energy    1.71347134 # occ.  2.00000000
 
ion      s     py     pz     px    dxy    dyz    dz2    dxz  x2-y2    tot
    1  0.000  0.004  0.000  0.001  0.071  0.000  0.000  0.000  0.214  0.291
    2  0.000  0.004  0.000  0.001  0.071  0.000  0.000  0.000  0.213  0.290
    3  0.000  0.046  0.000  0.015  0.000  0.000  0.000  0.000  0.000  0.061
    4  0.000  0.046  0.000  0.015  0.000  0.000  0.000  0.000  0.000  0.061
    5  0.000  0.046  0.000  0.015  0.000  0.000  0.000  0.000  0.000  0.061
    6  0.000  0.046  0.000  0.015  0.000  0.000  0.000  0.000  0.000  0.061
tot    0.000  0.191  0.000  0.064  0.142  0.000  0.000  0.000  0.427  0.824
 
band    11 # energy    1.72019365 # occ.  2.00000000
 
ion      s     py     pz     px    dxy    dyz    dz2    dxz  x2-y2    tot
    1  0.000  0.004  0.000  0.001  0.071  0.000  0.000  0.000  0.214  0.292
    2  0.000  0.004  0.000  0.001  0.072  0.000  0.000  0.000  0.215  0.292
    3  0.000  0.045  0.000  0.015  0.000  0.000  0.000  0.000  0.000  0.060
    4  0.000  0.045  0.000  0.015  0.000  0.000  0.000  0.000  0.000  0.060
    5  0.000  0.045  0.000  0.015  0.000  0.000  0.000  0.000  0.000  0.060
    6  0.000  0.045  0.000  0.015  0.000  0.000  0.000  0.000  0.000  0.060
tot    0.000  0.190  0.000  0.063  0.143  0.000  0.000  0.000  0.429  0.825
 
band    12 # energy    2.07839381 # occ.  2.00000000
 
ion      s     py     pz     px    dxy    dyz    dz2    dxz  x2-y2    tot
    1  0.000  0.000  0.000  0.000  0.000  0.053  0.000  0.160  0.000  0.213
    2  0.000  0.000  0.000  0.000  0.000  0.053  0.000  0.160  0.000  0.213
    3  0.000  0.014  0.031  0.042  0.000  0.000  0.000  0.000  0.000  0.088
    4  0.000  0.014  0.031  0.042  0.000  0.000  0.000  0.000  0.000  0.088
    5  0.000  0.014  0.031  0.042  0.000  0.000  0.000  0.000  0.000  0.088
    6  0.000  0.014  0.031  0.042  0.000  0.000  0.000  0.000  0.000  0.088
tot    0.000  0.056  0.125  0.169  0.000  0.107  0.000  0.320  0.000  0.777
 
band    13 # energy    2.44270113 # occ.  2.00000000
 
ion      s     py     pz     px    dxy    dyz    dz2    dxz  x2-y2    tot
    1  0.000  0.000  0.000  0.000  0.000  0.198  0.000  0.066  0.000  0.264
    2  0.000  0.000  0.000  0.000  0.000  0.198  0.000  0.066  0.000  0.264
    3  0.000  0.058  0.000  0.019  0.000  0.000  0.000  0.000  0.000  0.077
    4  0.000  0.058  0.000  0.019  0.000  0.000  0.000  0.000  0.000  0.077
    5  0.000  0.058  0.000  0.019  0.000  0.000  0.000  0.000  0.000  0.077
    6  0.000  0.058  0.000  0.019  0.000  0.000  0.000  0.000  0.000  0.077
tot    0.000  0.231  0.000  0.077  0.000  0.396  0.000  0.132  0.000  0.836
 
band    14 # energy    2.45930635 # occ.  2.00000000
 
ion      s     py     pz     px    dxy    dyz    dz2    dxz  x2-y2    tot
    1  0.000  0.000  0.000  0.000  0.000  0.200  0.000  0.067  0.000  0.266
    2  0.000  0.000  0.000  0.000  0.000  0.200  0.000  0.067  0.000  0.266
    3  0.000  0.057  0.000  0.019  0.000  0.000  0.000  0.000  0.000  0.077
    4  0.000  0.057  0.000  0.019  0.000  0.000  0.000  0.000  0.000  0.077
    5  0.000  0.057  0.000  0.019  0.000  0.000  0.000  0.000  0.000  0.077
    6  0.000  0.057  0.000  0.019  0.000  0.000  0.000  0.000  0.000  0.077
tot    0.000  0.230  0.000  0.077  0.000  0.399  0.000  0.133  0.000  0.838
 
band    15 # energy    2.86031577 # occ.  2.00000000
 
ion      s     py     pz     px    dxy    dyz    dz2    dxz  x2-y2    tot
    1  0.000  0.000  0.022  0.000  0.000  0.032  0.000  0.097  0.000  0.152
    2  0.000  0.000  0.022  0.000  0.000  0.032  0.000  0.097  0.000  0.152
    3  0.000  0.017  0.035  0.050  0.000  0.000  0.000  0.000  0.000  0.102
    4  0.000  0.017  0.035  0.050  0.000  0.000  0.000  0.000  0.000  0.102
    5  0.000  0.017  0.035  0.050  0.000  0.000  0.000  0.000  0.000  0.102
    6  0.000  0.017  0.035  0.050  0.000  0.000  0.000  0.000  0.000  0.102
tot    0.001  0.067  0.185  0.202  0.000  0.065  0.000  0.195  0.000  0.715
 
band    16 # energy    3.52081769 # occ.  2.00000000
 
ion      s     py     pz     px    dxy    dyz    dz2    dxz  x2-y2    tot
    1  0.000  0.000  0.033  0.000  0.000  0.005  0.000  0.014  0.000  0.051
    2  0.000  0.000  0.033  0.000  0.000  0.005  0.000  0.014  0.000  0.051
    3  0.001  0.008  0.108  0.025  0.000  0.000  0.000  0.000  0.000  0.141
    4  0.001  0.008  0.108  0.025  0.000  0.000  0.000  0.000  0.000  0.141
    5  0.001  0.008  0.108  0.025  0.000  0.000  0.000  0.000  0.000  0.141
    6  0.001  0.008  0.108  0.025  0.000  0.000  0.000  0.000  0.000  0.141
tot    0.003  0.033  0.497  0.099  0.000  0.009  0.000  0.028  0.000  0.669
 
band    17 # energy    3.85175478 # occ.  2.00000000
 
ion      s     py     pz     px    dxy    dyz    dz2    dxz  x2-y2    tot
    1  0.005  0.000  0.000  0.000  0.006  0.000  0.304  0.000  0.002  0.318
    2  0.005  0.000  0.000  0.000  0.006  0.000  0.304  0.000  0.002  0.318
    3  0.000  0.001  0.025  0.002  0.000  0.000  0.000  0.000  0.000  0.029
    4  0.000  0.001  0.025  0.002  0.000  0.000  0.000  0.000  0.000  0.029
    5  0.000  0.001  0.025  0.002  0.000  0.000  0.000  0.000  0.000  0.029
    6  0.000  0.001  0.025  0.002  0.000  0.000  0.000  0.000  0.000  0.029
tot    0.011  0.003  0.102  0.009  0.012  0.000  0.608  0.000  0.004  0.750
 
band    18 # energy    4.42772154 # occ.  2.00000000
 
ion      s     py     pz     px    dxy    dyz    dz2    dxz  x2-y2    tot
    1  0.014  0.000  0.000  0.000  0.015  0.000  0.273  0.000  0.005  0.308
    2  0.014  0.000  0.000  0.000  0.015  0.000  0.273  0.000  0.005  0.308
    3  0.005  0.002  0.040  0.005  0.000  0.000  0.000  0.000  0.000  0.052
    4  0.005  0.002  0.040  0.005  0.000  0.000  0.000  0.000  0.000  0.052
    5  0.005  0.002  0.040  0.005  0.000  0.000  0.000  0.000  0.000  0.052
    6  0.005  0.002  0.040  0.005  0.000  0.000  0.000  0.000  0.000  0.052
tot    0.048  0.007  0.159  0.022  0.031  0.000  0.547  0.000  0.010  0.825
 
band    19 # energy    6.76002246 # occ.  0.00000000
 
ion      s     py     pz     px    dxy    dyz    dz2    dxz  x2-y2    tot
    1  0.000  0.000  0.001  0.001  0.024  0.048  0.001  0.143  0.004  0.222
    2  0.001  0.000  0.000  0.002  0.034  0.031  0.002  0.107  0.007  0.185
    3  0.002  0.005  0.000  0.004  0.000  0.000  0.000  0.000  0.000  0.010
    4  0.003  0.009  0.000  0.025  0.000  0.000  0.000  0.000  0.000  0.038
    5  0.011  0.027  0.001  0.094  0.000  0.000  0.000  0.000  0.000  0.134
    6  0.010  0.026  0.001  0.104  0.000  0.000  0.000  0.000  0.000  0.141
tot    0.028  0.067  0.004  0.229  0.058  0.080  0.003  0.250  0.011  0.729
 
band    20 # energy    6.78142217 # occ.  0.00000000
 
ion      s     py     pz     px    dxy    dyz    dz2    dxz  x2-y2    tot
    1  0.002  0.003  0.000  0.004  0.093  0.010  0.011  0.052  0.058  0.232
    2  0.002  0.002  0.000  0.003  0.062  0.009  0.006  0.020  0.037  0.139
    3  0.008  0.033  0.001  0.071  0.000  0.000  0.000  0.000  0.000  0.112
    4  0.009  0.037  0.001  0.084  0.000  0.000  0.000  0.000  0.000  0.131
    5  0.003  0.042  0.001  0.049  0.000  0.000  0.000  0.000  0.000  0.096
    6  0.001  0.013  0.001  0.014  0.000  0.000  0.000  0.000  0.000  0.028
tot    0.025  0.129  0.004  0.224  0.155  0.019  0.016  0.072  0.095  0.739
 
band    21 # energy    6.85757335 # occ.  0.00000000
 
ion      s     py     pz     px    dxy    dyz    dz2    dxz  x2-y2    tot
    1  0.000  0.001  0.000  0.000  0.005  0.033  0.002  0.098  0.022  0.161
    2  0.000  0.003  0.000  0.000  0.010  0.045  0.002  0.140  0.047  0.248
    3  0.006  0.077  0.006  0.048  0.000  0.000  0.000  0.000  0.000  0.138
    4  0.004  0.041  0.006  0.045  0.000  0.000  0.000  0.000  0.000  0.097
    5  0.002  0.002  0.002  0.023  0.000  0.000  0.000  0.000  0.000  0.028
    6  0.004  0.012  0.002  0.048  0.000  0.000  0.000  0.000  0.000  0.066
tot    0.016  0.138  0.017  0.164  0.015  0.078  0.004  0.238  0.070  0.739
 
band    22 # energy    6.97950568 # occ.  0.00000000
 
ion      s     py     pz     px    dxy    dyz    dz2    dxz  x2-y2    tot
    1  0.000  0.004  0.000  0.007  0.173  0.001  0.017  0.001  0.030  0.235
    2  0.000  0.001  0.000  0.004  0.094  0.005  0.018  0.001  0.007  0.131
    3  0.001  0.002  0.003  0.067  0.000  0.000  0.000  0.000  0.000  0.073
    4  0.001  0.017  0.003  0.096  0.000  0.000  0.000  0.000  0.000  0.117
    5  0.001  0.031  0.003  0.114  0.000  0.000  0.000  0.000  0.000  0.149
    6  0.001  0.012  0.003  0.046  0.000  0.000  0.000  0.000  0.000  0.062
tot    0.003  0.068  0.013  0.334  0.268  0.006  0.035  0.002  0.038  0.767
 

 k-point     3 :    0.20000000 0.00000000 0.00000000     weight = 0.02000000

band     1 # energy   -9.38425164 # occ.  2.00000000
 
ion      s     py     pz     px    dxy    dyz    dz2    dxz  x2-y2    tot
    1  0.050  0.002  0.000  0.006  0.003  0.000  0.000  0.000  0.001  0.061
    2  0.050  0.002  0.000  0.006  0.003  0.000  0.000  0.000  0.001  0.061
    3  0.142  0.000  0.002  0.001  0.000  0.000  0.000  0.000  0.000  0.145
    4  0.142  0.000  0.002  0.001  0.000  0.000  0.000  0.000  0.000  0.145