<?xml version="1.0" encoding="ISO-8859-1"?>
<modeling>
 <generator>
  <i name="program" type="string">vasp </i>
  <i name="version" type="string">5.4.4.18Apr17-6-g9f103f2a35  </i>
  <i name="subversion" type="string">(build Jun 30 2017 11:15:00) complex            parallel </i>
  <i name="platform" type="string">STALLO_VASP_5.4.4 </i>
  <i name="date" type="string">2019 11 08 </i>
  <i name="time" type="string">15:02:48 </i>
 </generator>
 <incar>
  <i type="string" name="PREC">normal    ! low/normal/accurate</i>
  <i type="string" name="ALGO"> Fast      ! Algorithm for electronic re</i>
  <i type="int" name="ISPIN">     1</i>
  <i type="int" name="NELMIN">     4</i>
  <i name="EDIFF">      0.00000100</i>
  <i type="int" name="NSW">     0</i>
  <i name="ENCUT">    450.00000000</i>
  <i type="int" name="NEDOS">  2401</i>
  <i type="logical" name="LREAL"> F  </i>
  <i name="EMIN">    -12.00000000</i>
  <i name="EMAX">     12.00000000</i>
  <i type="int" name="ISMEAR">    -5</i>
  <i name="SIGMA">      0.20000000</i>
  <i type="logical" name="LWAVE"> F  </i>
  <i type="int" name="LORBIT">    11</i>
  <i type="logical" name="LELF"> T  </i>
  <v type="int" name="KPOINT_BSE">    -1     0     0     0</v>
 </incar>
 <structure name="primitive_cell" >
  <crystal>
   <varray name="basis" >
    <v>       3.19227375       0.00000000       0.00000000 </v>
    <v>      -1.59613687       2.76459035       0.00000000 </v>
    <v>       0.00000000       0.00000000      13.28154876 </v>
   </varray>
   <i name="volume">    117.21403994 </i>
   <varray name="rec_basis" >
    <v>       0.31325634       0.18085862       0.00000000 </v>
    <v>      -0.00000000       0.36171724       0.00000000 </v>
    <v>       0.00000000       0.00000000       0.07529242 </v>
   </varray>
  </crystal>
  <varray name="positions" >
   <v>       0.33333300      -0.33333300       0.25000000 </v>
   <v>      -0.33333300       0.33333300       0.13256427 </v>
   <v>      -0.33333400       0.33333300       0.36743573 </v>
   <v>       0.33333300      -0.33333300      -0.13256427 </v>
   <v>       0.33333400      -0.33333300      -0.36743573 </v>
   <v>      -0.33333300       0.33333300      -0.25000000 </v>
  </varray>
 </structure>
 <varray name="primitive_index" >
  <v type="int" >        1 </v>
  <v type="int" >        4 </v>
  <v type="int" >        5 </v>
  <v type="int" >        3 </v>
  <v type="int" >        6 </v>
  <v type="int" >        2 </v>
 </varray>
 <kpoints>
  <generation param="Gamma">
   <v type="int" name="divisions">      10       10        3 </v>
   <v name="usershift">      0.00000000       0.00000000       0.00000000 </v>
   <v name="genvec1">      0.10000000       0.00000000       0.00000000 </v>
   <v name="genvec2">     -0.00000000       0.10000000       0.00000000 </v>
   <v name="genvec3">      0.00000000       0.00000000       0.33333333 </v>
   <v name="shift">      0.00000000       0.00000000       0.00000000 </v>
  </generation>
  <varray name="kpointlist" >
   <v>       0.00000000       0.00000000       0.00000000 </v>
   <v>       0.10000000       0.00000000       0.00000000 </v>
   <v>       0.20000000       0.00000000       0.00000000 </v>
   <v>       0.30000000       0.00000000       0.00000000 </v>
   <v>       0.40000000       0.00000000       0.00000000 </v>
   <v>       0.50000000       0.00000000       0.00000000 </v>
   <v>       0.10000000       0.10000000       0.00000000 </v>
   <v>       0.20000000       0.10000000       0.00000000 </v>
   <v>       0.30000000       0.10000000       0.00000000 </v>
   <v>       0.40000000       0.10000000       0.00000000 </v>
   <v>       0.20000000       0.20000000       0.00000000 </v>
   <v>       0.30000000       0.20000000       0.00000000 </v>
   <v>       0.40000000       0.20000000       0.00000000 </v>
   <v>       0.30000000       0.30000000       0.00000000 </v>
   <v>       0.00000000       0.00000000       0.33333333 </v>
   <v>       0.10000000       0.00000000       0.33333333 </v>
   <v>       0.20000000       0.00000000       0.33333333 </v>
   <v>       0.30000000       0.00000000       0.33333333 </v>
   <v>       0.40000000       0.00000000       0.33333333 </v>
   <v>       0.50000000       0.00000000       0.33333333 </v>
   <v>       0.10000000       0.10000000       0.33333333 </v>
   <v>       0.20000000       0.10000000       0.33333333 </v>
   <v>       0.30000000       0.10000000       0.33333333 </v>
   <v>       0.40000000       0.10000000       0.33333333 </v>
   <v>       0.20000000       0.20000000       0.33333333 </v>
   <v>       0.30000000       0.20000000       0.33333333 </v>
   <v>       0.40000000       0.20000000       0.33333333 </v>
   <v>       0.30000000       0.30000000       0.33333333 </v>
  </varray>
  <varray name="weights" >
   <v>       0.00333333 </v>
   <v>       0.02000000 </v>
   <v>       0.02000000 </v>
   <v>       0.02000000 </v>
   <v>       0.02000000 </v>
   <v>       0.01000000 </v>
   <v>       0.02000000 </v>
   <v>       0.04000000 </v>
   <v>       0.04000000 </v>
   <v>       0.04000000 </v>
   <v>       0.02000000 </v>
   <v>       0.04000000 </v>
   <v>       0.02000000 </v>
   <v>       0.02000000 </v>
   <v>       0.00666667 </v>
   <v>       0.04000000 </v>
   <v>       0.04000000 </v>
   <v>       0.04000000 </v>
   <v>       0.04000000 </v>
   <v>       0.02000000 </v>
   <v>       0.04000000 </v>
   <v>       0.08000000 </v>
   <v>       0.08000000 </v>
   <v>       0.08000000 </v>
   <v>       0.04000000 </v>
   <v>       0.08000000 </v>
   <v>       0.04000000 </v>
   <v>       0.04000000 </v>
  </varray>
  <varray name="tetrahedronlist"  type="int" >
   <v type="int" >        8        2        2        7       16 </v>
   <v type="int" >        8        1        2        2       16 </v>
   <v type="int" >        4        1        2       15       16 </v>
   <v type="int" >        4        2        7       16       21 </v>
   <v type="int" >        8        2       16       16       21 </v>
   <v type="int" >        8        2       15       16       16 </v>
   <v type="int" >        8        3        7        8       21 </v>
   <v type="int" >        8        2        3        7       21 </v>
   <v type="int" >        4        2        3       16       21 </v>
   <v type="int" >        4        3        8       21       22 </v>
   <v type="int" >        8        3       17       21       22 </v>
   <v type="int" >        8        3       16       17       21 </v>
   <v type="int" >        8        4        8        9       22 </v>
   <v type="int" >        8        3        4        8       22 </v>
   <v type="int" >        4        3        4       17       22 </v>
   <v type="int" >        4        4        9       22       23 </v>
   <v type="int" >        8        4       18       22       23 </v>
   <v type="int" >        8        4       17       18       22 </v>
   <v type="int" >        8        5        9       10       23 </v>
   <v type="int" >        8        4        5        9       23 </v>
   <v type="int" >        4        4        5       18       23 </v>
   <v type="int" >        4        5       10       23       24 </v>
   <v type="int" >        8        5       19       23       24 </v>
   <v type="int" >        8        5       18       19       23 </v>
   <v type="int" >        8        6       10       10       24 </v>
   <v type="int" >        8        5        6       10       24 </v>
   <v type="int" >        4        5        6       19       24 </v>
   <v type="int" >        4        6       10       24       24 </v>
   <v type="int" >        4        6       20       24       24 </v>
   <v type="int" >        8        6       19       20       24 </v>
   <v type="int" >        8        5        9       10       24 </v>
   <v type="int" >        4        5        6       20       24 </v>
   <v type="int" >        4        5        9       23       24 </v>
   <v type="int" >        8        5       19       20       24 </v>
   <v type="int" >        8        4        8        9       23 </v>
   <v type="int" >        4        4        5       19       23 </v>
   <v type="int" >        4        4        8       22       23 </v>
   <v type="int" >        8        4       18       19       23 </v>
   <v type="int" >        8        3        7        8       22 </v>
   <v type="int" >        4        3        4       18       22 </v>
   <v type="int" >        4        3        7       21       22 </v>
   <v type="int" >        8        3       17       18       22 </v>
   <v type="int" >        4        2        2        7       21 </v>
   <v type="int" >        4        2        3       17       21 </v>
   <v type="int" >        4        2        2       16       21 </v>
   <v type="int" >        8        2       16       17       21 </v>
   <v type="int" >        4        1        2       16       16 </v>
   <v type="int" >        4        1       15       16       16 </v>
   <v type="int" >        8        3        7        8       17 </v>
   <v type="int" >        8        2        3        7       17 </v>
   <v type="int" >        4        2        7       16       17 </v>
   <v type="int" >        4        7        8       17       22 </v>
   <v type="int" >        8        7       17       21       22 </v>
   <v type="int" >        8        7       16       17       21 </v>
   <v type="int" >        8        8        8       11       22 </v>
   <v type="int" >        8        7        8        8       22 </v>
   <v type="int" >        4        7        8       21       22 </v>
   <v type="int" >        4        8       11       22       25 </v>
   <v type="int" >        8        8       22       22       25 </v>
   <v type="int" >        8        8       21       22       22 </v>
   <v type="int" >        8        9       11       12       25 </v>
   <v type="int" >        8        8        9       11       25 </v>
   <v type="int" >        4        8        9       22       25 </v>
   <v type="int" >        4        9       12       25       26 </v>
   <v type="int" >        8        9       23       25       26 </v>
   <v type="int" >        8        9       22       23       25 </v>
   <v type="int" >        8       10       12       13       26 </v>
   <v type="int" >        8        9       10       12       26 </v>
   <v type="int" >        4        9       10       23       26 </v>
   <v type="int" >        4       10       13       26       27 </v>
   <v type="int" >        8       10       24       26       27 </v>
   <v type="int" >        8       10       23       24       26 </v>
   <v type="int" >        8       10       12       13       27 </v>
   <v type="int" >        4       10       10       13       27 </v>
   <v type="int" >        4       10       10       24       27 </v>
   <v type="int" >        4       10       12       26       27 </v>
   <v type="int" >        8       10       24       24       27 </v>
   <v type="int" >        8        9       11       12       26 </v>
   <v type="int" >        4        9       10       24       26 </v>
   <v type="int" >        4        9       11       25       26 </v>
   <v type="int" >        8        9       23       24       26 </v>
   <v type="int" >        4        8        8       11       25 </v>
   <v type="int" >        4        8        9       23       25 </v>
   <v type="int" >        4        8        8       22       25 </v>
   <v type="int" >        8        8       22       23       25 </v>
   <v type="int" >        4        7        8       22       22 </v>
   <v type="int" >        4        3        7       17       22 </v>
   <v type="int" >        4        7       21       22       22 </v>
   <v type="int" >        4        2        7       17       21 </v>
   <v type="int" >        8        4        8        9       18 </v>
   <v type="int" >        8        3        4        8       18 </v>
   <v type="int" >        4        3        8       17       18 </v>
   <v type="int" >        4        8        9       18       23 </v>
   <v type="int" >        8        8       18       22       23 </v>
   <v type="int" >        8        8       17       18       22 </v>
   <v type="int" >        8        9       11       12       23 </v>
   <v type="int" >        8        8        9       11       23 </v>
   <v type="int" >        4        8       11       22       23 </v>
   <v type="int" >        4       11       12       23       26 </v>
   <v type="int" >        8       11       23       25       26 </v>
   <v type="int" >        8       11       22       23       25 </v>
   <v type="int" >        8       12       12       14       26 </v>
   <v type="int" >        8       11       12       12       26 </v>
   <v type="int" >        4       11       12       25       26 </v>
   <v type="int" >        4       12       14       26       28 </v>
   <v type="int" >        8       12       26       26       28 </v>
   <v type="int" >        8       12       25       26       26 </v>
   <v type="int" >        8       13       14       14       28 </v>
   <v type="int" >        8       12       13       14       28 </v>
   <v type="int" >        4       12       13       26       28 </v>
   <v type="int" >        4       13       14       28       28 </v>
   <v type="int" >        4       13       27       28       28 </v>
   <v type="int" >        8       13       26       27       28 </v>
   <v type="int" >        4       12       12       14       28 </v>
   <v type="int" >        4       12       13       27       28 </v>
   <v type="int" >        4       12       12       26       28 </v>
   <v type="int" >        8       12       26       27       28 </v>
   <v type="int" >        4       11       12       26       26 </v>
   <v type="int" >        4        9       11       23       26 </v>
   <v type="int" >        4       11       25       26       26 </v>
   <v type="int" >        4        8       11       23       25 </v>
   <v type="int" >        4        4        8       18       23 </v>
   <v type="int" >        4        3        8       18       22 </v>
   <v type="int" >        8        5        9       10       19 </v>
   <v type="int" >        8        4        5        9       19 </v>
   <v type="int" >        4        4        9       18       19 </v>
   <v type="int" >        4        9       10       19       24 </v>
   <v type="int" >        8        9       19       23       24 </v>
   <v type="int" >        8        9       18       19       23 </v>
   <v type="int" >        8       10       12       13       24 </v>
   <v type="int" >        8        9       10       12       24 </v>
   <v type="int" >        4        9       12       23       24 </v>
   <v type="int" >        4       12       13       24       27 </v>
   <v type="int" >        8       12       24       26       27 </v>
   <v type="int" >        8       12       23       24       26 </v>
   <v type="int" >        4       13       14       14       27 </v>
   <v type="int" >        8       12       13       14       27 </v>
   <v type="int" >        4       12       14       26       27 </v>
   <v type="int" >        4       14       14       27       28 </v>
   <v type="int" >        8       14       27       28       28 </v>
   <v type="int" >        8       14       26       27       28 </v>
   <v type="int" >        4       14       14       14       28 </v>
   <v type="int" >        4       14       14       28       28 </v>
   <v type="int" >        4       13       14       27       28 </v>
   <v type="int" >        4       14       28       28       28 </v>
   <v type="int" >        4       12       14       27       28 </v>
   <v type="int" >        4       10       12       24       27 </v>
   <v type="int" >        4        9       12       24       26 </v>
   <v type="int" >        4        5        9       19       24 </v>
   <v type="int" >        4        4        9       19       23 </v>
   <v type="int" >        4        6       10       10       20 </v>
   <v type="int" >        8        5        6       10       20 </v>
   <v type="int" >        4        5       10       19       20 </v>
   <v type="int" >        4       10       10       20       24 </v>
   <v type="int" >        8       10       20       24       24 </v>
   <v type="int" >        8       10       19       20       24 </v>
   <v type="int" >        8       10       10       13       24 </v>
   <v type="int" >        4       10       13       24       24 </v>
   <v type="int" >        4       12       13       24       26 </v>
   <v type="int" >        8       13       24       26       27 </v>
   <v type="int" >        4       13       24       24       27 </v>
   <v type="int" >        8       12       13       14       26 </v>
   <v type="int" >        4       13       14       26       27 </v>
   <v type="int" >        4       12       14       26       26 </v>
   <v type="int" >        4       14       26       26       28 </v>
   <v type="int" >        4       13       14       26       28 </v>
   <v type="int" >        4       10       13       24       26 </v>
   <v type="int" >        4       10       13       24       27 </v>
   <v type="int" >        4        6       10       20       24 </v>
   <v type="int" >        4        5       10       20       24 </v>
   <v type="int" >        8        5        6       10       19 </v>
   <v type="int" >        4        6       10       19       20 </v>
   <v type="int" >        4        9       10       19       23 </v>
   <v type="int" >        8       10       19       23       24 </v>
   <v type="int" >        8        9       10       12       23 </v>
   <v type="int" >        4       10       12       23       24 </v>
   <v type="int" >        4       11       12       23       25 </v>
   <v type="int" >        8       12       23       25       26 </v>
   <v type="int" >        4       11       12       12       25 </v>
   <v type="int" >        4       12       12       25       26 </v>
   <v type="int" >        4        9       12       23       25 </v>
   <v type="int" >        4       10       12       23       26 </v>
   <v type="int" >        4        5       10       19       23 </v>
   <v type="int" >        4        6       10       19       24 </v>
   <v type="int" >        8        4        5        9       18 </v>
   <v type="int" >        4        5        9       18       19 </v>
   <v type="int" >        4        8        9       18       22 </v>
   <v type="int" >        8        9       18       22       23 </v>
   <v type="int" >        8        8        9       11       22 </v>
   <v type="int" >        4        9       11       22       23 </v>
   <v type="int" >        4        8       11       22       22 </v>
   <v type="int" >        4       11       22       22       25 </v>
   <v type="int" >        4        9       11       22       25 </v>
   <v type="int" >        4        4        9       18       22 </v>
   <v type="int" >        4        5        9       18       23 </v>
   <v type="int" >        8        3        4        8       17 </v>
   <v type="int" >        4        4        8       17       18 </v>
   <v type="int" >        4        7        8       17       21 </v>
   <v type="int" >        8        8       17       21       22 </v>
   <v type="int" >        4        7        8        8       21 </v>
   <v type="int" >        4        8        8       21       22 </v>
   <v type="int" >        4        3        8       17       21 </v>
   <v type="int" >        4        4        8       17       22 </v>
   <v type="int" >        8        2        3        7       16 </v>
   <v type="int" >        4        3        7       16       17 </v>
   <v type="int" >        4        2        7       16       16 </v>
   <v type="int" >        4        7       16       16       21 </v>
   <v type="int" >        4        3        7       16       21 </v>
   <v type="int" >        4        1        2        2       15 </v>
   <v type="int" >        4        2        2       15       16 </v>
   <v type="int" >       12       16       16       16       21 </v>
   <v type="int" >       12       15       16       16       16 </v>
   <v type="int" >        6       15       15       16       16 </v>
   <v type="int" >        6       16       16       21       21 </v>
   <v type="int" >       12       17       21       21       22 </v>
   <v type="int" >       12       16       17       21       21 </v>
   <v type="int" >       12       16       16       17       21 </v>
   <v type="int" >       12       17       21       22       22 </v>
   <v type="int" >       12       17       17       21       22 </v>
   <v type="int" >       12       16       17       17       21 </v>
   <v type="int" >       12       18       22       22       23 </v>
   <v type="int" >       12       17       18       22       22 </v>
   <v type="int" >       12       17       17       18       22 </v>
   <v type="int" >       12       18       22       23       23 </v>
   <v type="int" >       12       18       18       22       23 </v>
   <v type="int" >       12       17       18       18       22 </v>
   <v type="int" >       12       19       23       23       24 </v>
   <v type="int" >       12       18       19       23       23 </v>
   <v type="int" >       12       18       18       19       23 </v>
   <v type="int" >       12       19       23       24       24 </v>
   <v type="int" >       12       19       19       23       24 </v>
   <v type="int" >       12       18       19       19       23 </v>
   <v type="int" >       12       20       24       24       24 </v>
   <v type="int" >       12       19       20       24       24 </v>
   <v type="int" >       12       19       19       20       24 </v>
   <v type="int" >        6       20       20       24       24 </v>
   <v type="int" >       12       19       20       20       24 </v>
   <v type="int" >       12       22       22       22       25 </v>
   <v type="int" >       12       21       22       22       22 </v>
   <v type="int" >        6       21       21       22       22 </v>
   <v type="int" >        6       22       22       25       25 </v>
   <v type="int" >       12       23       25       25       26 </v>
   <v type="int" >       12       22       23       25       25 </v>
   <v type="int" >       12       22       22       23       25 </v>
   <v type="int" >       12       23       25       26       26 </v>
   <v type="int" >       12       23       23       25       26 </v>
   <v type="int" >       12       22       23       23       25 </v>
   <v type="int" >       12       24       26       26       27 </v>
   <v type="int" >       12       23       24       26       26 </v>
   <v type="int" >       12       23       23       24       26 </v>
   <v type="int" >       12       24       26       27       27 </v>
   <v type="int" >       12       24       24       26       27 </v>
   <v type="int" >       12       23       24       24       26 </v>
   <v type="int" >        6       24       24       27       27 </v>
   <v type="int" >       12       24       24       24       27 </v>
   <v type="int" >       12       26       26       26       28 </v>
   <v type="int" >       12       25       26       26       26 </v>
   <v type="int" >        6       25       25       26       26 </v>
   <v type="int" >        6       26       26       28       28 </v>
   <v type="int" >       12       27       28       28       28 </v>
   <v type="int" >       12       26       27       28       28 </v>
   <v type="int" >       12       26       26       27       28 </v>
   <v type="int" >        6       27       27       28       28 </v>
   <v type="int" >       12       26       27       27       28 </v>
   <v type="int" >        6       28       28       28       28 </v>
  </varray>
  <i name="volumeweight">      0.00055556 </i>
 </kpoints>
 <parameters>
  <separator name="general" >
   <i type="string" name="SYSTEM">unknown system</i>
   <i type="logical" name="LCOMPAT"> F  </i>
  </separator>
  <separator name="electronic" >
   <i type="string" name="PREC">normal</i>
   <i name="ENMAX">    450.00000000</i>
   <i name="ENAUG">    345.27800000</i>
   <i name="EDIFF">      0.00000100</i>
   <i type="int" name="IALGO">    68</i>
   <i type="int" name="IWAVPR">    10</i>
   <i type="int" name="NBANDS">    22</i>
   <i name="NELECT">     36.00000000</i>
   <i type="int" name="TURBO">     0</i>
   <i type="int" name="IRESTART">     0</i>
   <i type="int" name="NREBOOT">     0</i>
   <i type="int" name="NMIN">     0</i>
   <i name="EREF">      0.00000000</i>
   <separator name="electronic smearing" >
    <i type="int" name="ISMEAR">    -5</i>
    <i name="SIGMA">      0.20000000</i>
    <i name="KSPACING">      0.50000000</i>
    <i type="logical" name="KGAMMA"> T  </i>
   </separator>
   <separator name="electronic projectors" >
    <i type="logical" name="LREAL"> F  </i>
    <v name="ROPT">      0.00000000      0.00000000</v>
    <i type="int" name="LMAXPAW">  -100</i>
    <i type="int" name="LMAXMIX">     2</i>
    <i type="logical" name="NLSPLINE"> F  </i>
   </separator>
   <separator name="electronic startup" >
    <i type="int" name="ISTART">     0</i>
    <i type="int" name="ICHARG">     2</i>
    <i type="int" name="INIWAV">     1</i>
   </separator>
   <separator name="electronic spin" >
    <i type="int" name="ISPIN">     1</i>
    <i type="logical" name="LNONCOLLINEAR"> F  </i>
    <v name="MAGMOM">      1.00000000      1.00000000      1.00000000      1.00000000      1.00000000      1.00000000</v>
    <i name="NUPDOWN">     -1.00000000</i>
    <i type="logical" name="LSORBIT"> F  </i>
    <v name="SAXIS">      0.00000000      0.00000000      1.00000000</v>
    <i type="logical" name="LSPIRAL"> F  </i>
    <v name="QSPIRAL">      0.00000000      0.00000000      0.00000000</v>
    <i type="logical" name="LZEROZ"> F  </i>
   </separator>
   <separator name="electronic exchange-correlation" >
    <i type="logical" name="LASPH"> F  </i>
    <i type="logical" name="LMETAGGA"> F  </i>
   </separator>
   <separator name="electronic convergence" >
    <i type="int" name="NELM">    60</i>
    <i type="int" name="NELMDL">    -5</i>
    <i type="int" name="NELMIN">     4</i>
    <i name="ENINI">    450.00000000</i>
    <separator name="electronic convergence detail" >
     <i type="logical" name="LDIAG"> T  </i>
     <i type="logical" name="LSUBROT"> F  </i>
     <i name="WEIMIN">      0.00000000</i>
     <i name="EBREAK">      0.00000001</i>
     <i name="DEPER">      0.30000000</i>
     <i type="int" name="NRMM">     4</i>
     <i name="TIME">      0.40000000</i>
    </separator>
   </separator>
   <separator name="electronic mixer" >
    <i name="AMIX">      0.40000000</i>
    <i name="BMIX">      1.00000000</i>
    <i name="AMIN">      0.10000000</i>
    <i name="AMIX_MAG">      1.60000000</i>
    <i name="BMIX_MAG">      1.00000000</i>
    <separator name="electronic mixer details" >
     <i type="int" name="IMIX">     4</i>
     <i type="logical" name="MIXFIRST"> F  </i>
     <i type="int" name="MAXMIX">   -45</i>
     <i name="WC">    100.00000000</i>
     <i type="int" name="INIMIX">     1</i>
     <i type="int" name="MIXPRE">     1</i>
     <i type="int" name="MREMOVE">     5</i>
    </separator>
   </separator>
   <separator name="electronic dipolcorrection" >
    <i type="logical" name="LDIPOL"> F  </i>
    <i type="logical" name="LMONO"> F  </i>
    <i type="int" name="IDIPOL">     0</i>
    <i name="EPSILON">      1.00000000</i>
    <v name="DIPOL">   -100.00000000   -100.00000000   -100.00000000</v>
    <i name="EFIELD">      0.00000000</i>
   </separator>
  </separator>
  <separator name="grids" >
   <i type="int" name="NGX">    18</i>
   <i type="int" name="NGY">    18</i>
   <i type="int" name="NGZ">    70</i>
   <i type="int" name="NGXF">    36</i>
   <i type="int" name="NGYF">    36</i>
   <i type="int" name="NGZF">   140</i>
   <i type="logical" name="ADDGRID"> F  </i>
  </separator>
  <separator name="ionic" >
   <i type="int" name="NSW">     0</i>
   <i type="int" name="IBRION">    -1</i>
   <i type="int" name="MDALGO">     0</i>
   <i type="int" name="ISIF">     2</i>
   <i name="PSTRESS">      0.00000000</i>
   <i name="EDIFFG">      0.00001000</i>
   <i type="int" name="NFREE">     0</i>
   <i name="POTIM">      0.50000000</i>
   <i name="SMASS">     -3.00000000</i>
   <i name="SCALEE">      1.00000000</i>
  </separator>
  <separator name="ionic md" >
   <i name="TEBEG">      0.00010000</i>
   <i name="TEEND">      0.00010000</i>
   <i type="int" name="NBLOCK">     1</i>
   <i type="int" name="KBLOCK">     1</i>
   <i type="int" name="NPACO">   256</i>
   <i name="APACO">     16.00000000</i>
  </separator>
  <separator name="symmetry" >
   <i type="int" name="ISYM">     2</i>
   <i name="SYMPREC">      0.00001000</i>
  </separator>
  <separator name="dos" >
   <i type="int" name="LORBIT">    11</i>
   <v name="RWIGS">     -1.00000000     -1.00000000</v>
   <i type="int" name="NEDOS">  2401</i>
   <i name="EMIN">    -12.00000000</i>
   <i name="EMAX">     12.00000000</i>
   <i name="EFERMI">      0.00000000</i>
  </separator>
  <separator name="writing" >
   <i type="int" name="NWRITE">     2</i>
   <i type="logical" name="LWAVE"> F  </i>
   <i type="logical" name="LDOWNSAMPLE"> F  </i>
   <i type="logical" name="LCHARG"> T  </i>
   <i type="logical" name="LPARD"> F  </i>
   <i type="logical" name="LVTOT"> F  </i>
   <i type="logical" name="LVHAR"> F  </i>
   <i type="logical" name="LELF"> T  </i>
   <i type="logical" name="LOPTICS"> F  </i>
   <v name="STM">      0.00000000      0.00000000      0.00000000      0.00000000      0.00000000      0.00000000      0.00000000</v>
  </separator>
  <separator name="performance" >
   <i type="int" name="NPAR">     2</i>
   <i type="int" name="NSIM">     4</i>
   <i type="int" name="NBLK">    -1</i>
   <i type="logical" name="LPLANE"> T  </i>
   <i type="logical" name="LSCALAPACK"> T  </i>
   <i type="logical" name="LSCAAWARE"> F  </i>
   <i type="logical" name="LSCALU"> F  </i>
   <i type="logical" name="LASYNC"> F  </i>
   <i type="logical" name="LORBITALREAL"> F  </i>
  </separator>
  <separator name="miscellaneous" >
   <i type="int" name="IDIOT">     3</i>
   <i type="int" name="ISPECIAL">     0</i>
   <i type="logical" name="LMUSIC"> F  </i>
   <v name="POMASS">     95.94000000     32.06600000</v>
   <v name="DARWINR">      0.00000000      0.00000000</v>
   <v name="DARWINV">      1.00000000      1.00000000</v>
   <i type="logical" name="LCORR"> T  </i>
  </separator>
  <i type="logical" name="GGA_COMPAT"> T  </i>
  <i type="logical" name="LBERRY"> F  </i>
  <i type="int" name="ICORELEVEL">     0</i>
  <i type="logical" name="LDAU"> F  </i>
  <i type="int" name="I_CONSTRAINED_M">     0</i>
  <separator name="electronic exchange-correlation" >
   <i type="string" name="GGA">--</i>
   <i type="int" name="VOSKOWN">     0</i>
   <i type="logical" name="LHFCALC"> F  </i>
   <i type="string" name="PRECFOCK"></i>
   <i type="logical" name="LSYMGRAD"> F  </i>
   <i type="logical" name="LHFONE"> F  </i>
   <i type="logical" name="LRHFCALC"> F  </i>
   <i type="logical" name="LTHOMAS"> F  </i>
   <i type="logical" name="LMODELHF"> F  </i>
   <i name="ENCUT4O">     -1.00000000</i>
   <i type="int" name="EXXOEP">     0</i>
   <i type="int" name="FOURORBIT">     0</i>
   <i name="AEXX">      0.00000000</i>
   <i name="HFALPHA">      0.00000000</i>
   <i name="MCALPHA">      0.00000000</i>
   <i name="ALDAX">      1.00000000</i>
   <i name="AGGAX">      1.00000000</i>
   <i name="ALDAC">      1.00000000</i>
   <i name="AGGAC">      1.00000000</i>
   <i type="int" name="NKREDX">     1</i>
   <i type="int" name="NKREDY">     1</i>
   <i type="int" name="NKREDZ">     1</i>
   <i type="logical" name="SHIFTRED"> F  </i>
   <i type="logical" name="ODDONLY"> F  </i>
   <i type="logical" name="EVENONLY"> F  </i>
   <i type="int" name="LMAXFOCK">     0</i>
   <i type="int" name="NMAXFOCKAE">     0</i>
   <i type="logical" name="LFOCKAEDFT"> F  </i>
   <i name="HFSCREEN">      0.00000000</i>
   <i name="HFSCREENC">      0.00000000</i>
   <i type="int" name="NBANDSGWLOW">     0</i>
  </separator>
  <separator name="vdW DFT" >
   <i type="logical" name="LUSE_VDW"> F  </i>
   <i name="Zab_VDW">     -0.84910000</i>
   <i name="PARAM1">      0.12340000</i>
   <i name="PARAM2">      1.00000000</i>
   <i name="PARAM3">      0.00000000</i>
  </separator>
  <separator name="model GW" >
   <i type="int" name="MODEL_GW">     0</i>
   <i name="MODEL_EPS0">     11.72140399</i>
   <i name="MODEL_ALPHA">      1.00000000</i>
  </separator>
  <separator name="linear response parameters" >
   <i type="logical" name="LEPSILON"> F  </i>
   <i type="logical" name="LRPA"> F  </i>
   <i type="logical" name="LNABLA"> F  </i>
   <i type="logical" name="LVEL"> F  </i>
   <i type="int" name="KINTER">     0</i>
   <i name="CSHIFT">      0.10000000</i>
   <i name="OMEGAMAX">     -1.00000000</i>
   <i name="DEG_THRESHOLD">      0.00200000</i>
   <i name="RTIME">     -0.10000000</i>
   <i name="WPLASMAI">      0.00000000</i>
   <v name="DFIELD">      0.00000000      0.00000000      0.00000000</v>
   <v name="WPLASMA">      0.00000000      0.00000000      0.00000000      0.00000000      0.00000000      0.00000000      0.00000000      0.00000000      0.00000000</v>
  </separator>
  <separator name="orbital magnetization" >
   <i type="logical" name="NUCIND"> F  </i>
   <v name="MAGPOS">      0.00000000      0.00000000      0.00000000</v>
   <i type="logical" name="LNICSALL"> T  </i>
   <i type="logical" name="ORBITALMAG"> F  </i>
   <i type="logical" name="LMAGBLOCH"> F  </i>
   <i type="logical" name="LCHIMAG"> F  </i>
   <i type="logical" name="LGAUGE"> T  </i>
   <i type="int" name="MAGATOM">     0</i>
   <v name="MAGDIPOL">      0.00000000      0.00000000      0.00000000</v>
   <v name="AVECCONST">      0.00000000      0.00000000      0.00000000</v>
  </separator>
  <separator name="response functions" >
   <i type="logical" name="LADDER"> F  </i>
   <i type="logical" name="LRPAFORCE"> F  </i>
   <i type="logical" name="LFXC"> F  </i>
   <i type="logical" name="LHARTREE"> T  </i>
   <i type="int" name="IBSE">     0</i>
   <v type="int" name="KPOINT">    -1     0     0     0</v>
   <i type="logical" name="LTCTE"> F  </i>
   <i type="logical" name="LTETE"> F  </i>
   <i type="logical" name="LTRIPLET"> F  </i>
   <i type="logical" name="LFXCEPS"> F  </i>
   <i type="logical" name="LFXHEG"> F  </i>
   <i type="int" name="NATURALO">     2</i>
   <i type="logical" name="L2ORDER"> F  </i>
   <i type="logical" name="LMP2LT"> F  </i>
   <i type="logical" name="LUSEW"> F  </i>
   <i name="ENCUTGW">     -2.00000000</i>
   <i name="ENCUTGWSOFT">     -2.00000000</i>
   <i name="ENCUTLF">     -1.00000000</i>
   <i type="int" name="LMAXMP2">    -1</i>
   <i name="SCISSOR">      0.00000000</i>
   <i type="int" name="NOMEGA">     0</i>
   <i type="int" name="NOMEGAR">     0</i>
   <i type="int" name="NBANDSGW">    -1</i>
   <i type="int" name="NBANDSO">    -1</i>
   <i type="int" name="NBANDSV">    -1</i>
   <i type="int" name="NELM">     1</i>
   <i type="int" name="NELMHF">     1</i>
   <i type="int" name="DIM">     3</i>
   <i type="int" name="ANTIRES">     0</i>
   <i name="OMEGAMAX">    -30.00000000</i>
   <i name="OMEGAMIN">    -30.00000000</i>
   <i name="OMEGATL">   -200.00000000</i>
   <i type="int" name="OMEGAGRID">   140</i>
   <i name="CSHIFT">     -0.10000000</i>
   <i type="logical" name="SELFENERGY"> F  </i>
   <i type="logical" name="LSPECTRAL"> F  </i>
   <i type="logical" name="LSPECTRALGW"> F  </i>
   <i type="logical" name="LSINGLES"> F  </i>
   <i type="logical" name="LFERMIGW"> F  </i>
   <i type="logical" name="ODDONLYGW"> F  </i>
   <i type="logical" name="EVENONLYGW"> F  </i>
   <i type="int" name="NKREDLFX">     1</i>
   <i type="int" name="NKREDLFY">     1</i>
   <i type="int" name="NKREDLFZ">     1</i>
   <i type="int" name="MAXMEM">  2800</i>
   <i type="int" name="TELESCOPE">     0</i>
   <i type="int" name="TAUPAR">     1</i>
   <i type="int" name="OMEGAPAR">    -1</i>
   <i name="LAMBDA">      1.00000000</i>
  </separator>
  <separator name="External order field" >
   <i name="OFIELD_KAPPA">      0.00000000</i>
   <v name="OFIELD_K">      0.00000000      0.00000000      0.00000000</v>
   <i name="OFIELD_Q6_NEAR">      0.00000000</i>
   <i name="OFIELD_Q6_FAR">      0.00000000</i>
   <i name="OFIELD_A">      0.00000000</i>
  </separator>
 </parameters>
 <atominfo>
  <atoms>       6 </atoms>
  <types>       2 </types>
  <array name="atoms" >
   <dimension dim="1">ion</dimension>
   <field type="string">element</field>
   <field type="int">atomtype</field>
   <set>
    <rc><c>Mo</c><c>   1</c></rc>
    <rc><c>Mo</c><c>   1</c></rc>
    <rc><c>S </c><c>   2</c></rc>
    <rc><c>S </c><c>   2</c></rc>
    <rc><c>S </c><c>   2</c></rc>
    <rc><c>S </c><c>   2</c></rc>
   </set>
  </array>
  <array name="atomtypes" >
   <dimension dim="1">type</dimension>
   <field type="int">atomspertype</field>
   <field type="string">element</field>
   <field>mass</field>
   <field>valence</field>
   <field type="string">pseudopotential</field>
   <set>
    <rc><c>   2</c><c>Mo</c><c>     95.94000000</c><c>      6.00000000</c><c> PAW_PBE Mo 08Apr2002                   </c></rc>
    <rc><c>   4</c><c>S </c><c>     32.06600000</c><c>      6.00000000</c><c>  PAW_PBE S 17Jan2003                   </c></rc>
   </set>
  </array>
 </atominfo>
 <structure name="initialpos" >
  <crystal>
   <varray name="basis" >
    <v>       3.19227375       0.00000000       0.00000000 </v>
    <v>      -1.59613687       2.76459035       0.00000000 </v>
    <v>       0.00000000       0.00000000      13.28154876 </v>
   </varray>
   <i name="volume">    117.21403994 </i>
   <varray name="rec_basis" >
    <v>       0.31325634       0.18085862       0.00000000 </v>
    <v>      -0.00000000       0.36171724       0.00000000 </v>
    <v>       0.00000000       0.00000000       0.07529242 </v>
   </varray>
  </crystal>
  <varray name="positions" >
   <v>       0.33333300       0.66666700       0.25000000 </v>
   <v>       0.66666700       0.33333300       0.75000000 </v>
   <v>       0.33333300       0.66666700       0.86743573 </v>
   <v>       0.66666700       0.33333300       0.13256427 </v>
   <v>       0.66666600       0.33333300       0.36743573 </v>
   <v>       0.33333400       0.66666700       0.63256427 </v>
  </varray>
 </structure>
 <calculation>
  <scstep>
   <time name="dav">    0.58    0.59</time>
   <time name="total">    0.72    1.01</time>
   <energy>
    <i name="alphaZ">    101.17761570 </i>
    <i name="ewald">  -1410.01026994 </i>
    <i name="hartreedc">   -323.92110904 </i>
    <i name="XCdc">    -72.44653717 </i>
    <i name="pawpsdc">    813.77302396 </i>
    <i name="pawaedc">   -658.68146406 </i>
    <i name="eentropy">      0.00000000 </i>
    <i name="bandstr">    199.21898731 </i>
    <i name="atom">   1542.31022798 </i>
    <i name="e_fr_energy">    191.42047474 </i>
    <i name="e_wo_entrp">    191.42047474 </i>
    <i name="e_0_energy">    191.42047474 </i>
   </energy>
  </scstep>
  <scstep>
   <time name="dav">    0.73    0.73</time>
   <time name="total">    0.74    0.75</time>
   <energy>
    <i name="e_fr_energy">    -29.44615241 </i>
    <i name="e_wo_entrp">    -29.44615241 </i>
    <i name="e_0_energy">    -29.44615241 </i>
   </energy>
  </scstep>
  <scstep>
   <time name="dav">    0.72    0.73</time>
   <time name="total">    0.73    0.73</time>
   <energy>
    <i name="e_fr_energy">    -46.32278623 </i>
    <i name="e_wo_entrp">    -46.32278623 </i>
    <i name="e_0_energy">    -46.32278623 </i>
   </energy>
  </scstep>
  <scstep>
   <time name="dav">    0.74    0.74</time>
   <time name="total">    0.75    0.75</time>
   <energy>
    <i name="e_fr_energy">    -46.77134036 </i>
    <i name="e_wo_entrp">    -46.77134036 </i>
    <i name="e_0_energy">    -46.77134036 </i>
   </energy>
  </scstep>
  <scstep>
   <time name="dav">    0.75    0.75</time>
   <time name="total">    0.81    0.81</time>
   <energy>
    <i name="e_fr_energy">    -46.78355277 </i>
    <i name="e_wo_entrp">    -46.78355277 </i>
    <i name="e_0_energy">    -46.78355277 </i>
   </energy>
  </scstep>
  <scstep>
   <time name="diag">    0.13    0.13</time>
   <time name="diis">    0.48    0.48</time>
   <time name="orth">    0.01    0.01</time>
   <time name="total">    0.70    0.70</time>
   <energy>
    <i name="e_fr_energy">    -44.39898848 </i>
    <i name="e_wo_entrp">    -44.39898848 </i>
    <i name="e_0_energy">    -44.39898848 </i>
   </energy>
  </scstep>
  <scstep>
   <time name="diag">    0.13    0.13</time>
   <time name="diis">    0.47    0.47</time>
   <time name="orth">    0.01    0.01</time>
   <time name="total">    0.70    0.70</time>
   <energy>
    <i name="e_fr_energy">    -43.67230754 </i>
    <i name="e_wo_entrp">    -43.67230754 </i>
    <i name="e_0_energy">    -43.67230754 </i>
   </energy>
  </scstep>
  <scstep>
   <time name="diag">    0.13    0.13</time>
   <time name="diis">    0.49    0.49</time>
   <time name="orth">    0.01    0.01</time>
   <time name="total">    0.72    0.72</time>
   <energy>
    <i name="e_fr_energy">    -43.61442381 </i>
    <i name="e_wo_entrp">    -43.61442381 </i>
    <i name="e_0_energy">    -43.61442381 </i>
   </energy>
  </scstep>
  <scstep>
   <time name="diag">    0.13    0.13</time>
   <time name="diis">    0.51    0.51</time>
   <time name="orth">    0.01    0.01</time>
   <time name="total">    0.74    0.74</time>
   <energy>
    <i name="e_fr_energy">    -43.60456499 </i>
    <i name="e_wo_entrp">    -43.60456499 </i>
    <i name="e_0_energy">    -43.60456499 </i>
   </energy>
  </scstep>
  <scstep>
   <time name="diag">    0.13    0.13</time>
   <time name="diis">    0.51    0.51</time>
   <time name="orth">    0.01    0.01</time>
   <time name="total">    0.74    0.74</time>
   <energy>
    <i name="e_fr_energy">    -43.58976914 </i>
    <i name="e_wo_entrp">    -43.58976914 </i>
    <i name="e_0_energy">    -43.58976914 </i>
   </energy>
  </scstep>
  <scstep>
   <time name="diag">    0.13    0.13</time>
   <time name="diis">    0.56    0.56</time>
   <time name="orth">    0.01    0.01</time>
   <time name="total">    0.78    0.78</time>
   <energy>
    <i name="e_fr_energy">    -43.58999190 </i>
    <i name="e_wo_entrp">    -43.58999190 </i>
    <i name="e_0_energy">    -43.58999190 </i>
   </energy>
  </scstep>
  <scstep>
   <time name="diag">    0.13    0.13</time>
   <time name="diis">    0.55    0.55</time>
   <time name="orth">    0.01    0.01</time>
   <time name="total">    0.77    0.77</time>
   <energy>
    <i name="e_fr_energy">    -43.59008513 </i>
    <i name="e_wo_entrp">    -43.59008513 </i>
    <i name="e_0_energy">    -43.59008513 </i>
   </energy>
  </scstep>
  <scstep>
   <time name="diag">    0.13    0.13</time>
   <time name="diis">    0.56    0.56</time>
   <time name="orth">    0.01    0.01</time>
   <time name="total">    0.78    0.79</time>
   <energy>
    <i name="e_fr_energy">    -43.59010012 </i>
    <i name="e_wo_entrp">    -43.59010012 </i>
    <i name="e_0_energy">    -43.59010012 </i>
   </energy>
  </scstep>
  <scstep>
   <time name="diag">    0.13    0.13</time>
   <time name="diis">    0.54    0.54</time>
   <time name="orth">    0.01    0.01</time>
   <time name="total">    0.76    0.76</time>
   <energy>
    <i name="e_fr_energy">    -43.59008528 </i>
    <i name="e_wo_entrp">    -43.59008528 </i>
    <i name="e_0_energy">    -43.59008528 </i>
   </energy>
  </scstep>
  <scstep>
   <time name="diag">    0.13    0.13</time>
   <time name="diis">    0.48    0.48</time>
   <time name="orth">    0.01    0.01</time>
   <time name="total">    0.71    0.71</time>
   <energy>
    <i name="e_fr_energy">    -43.59008633 </i>
    <i name="e_wo_entrp">    -43.59008633 </i>
    <i name="e_0_energy">    -43.59008633 </i>
   </energy>
  </scstep>
  <scstep>
   <time name="diag">    0.13    0.13</time>
   <time name="diis">    0.37    0.37</time>
   <time name="orth">    0.01    0.01</time>
   <time name="total">    0.55    0.55</time>
   <energy>
    <i name="alphaZ">    101.17761570 </i>
    <i name="ewald">  -1410.01026994 </i>
    <i name="hartreedc">   -328.89091864 </i>
    <i name="XCdc">    -70.28908697 </i>
    <i name="pawpsdc">    945.71544528 </i>
    <i name="pawaedc">   -794.11299787 </i>
    <i name="eentropy">      0.00000000 </i>
    <i name="bandstr">    -29.49010116 </i>
    <i name="atom">   1542.31022798 </i>
    <i name="e_fr_energy">    -43.59008563 </i>
    <i name="e_wo_entrp">    -43.59008563 </i>
    <i name="e_0_energy">    -43.59008563 </i>
   </energy>
  </scstep>
  <structure>
   <crystal>
    <varray name="basis" >
     <v>       3.19227375       0.00000000       0.00000000 </v>
     <v>      -1.59613687       2.76459035       0.00000000 </v>
     <v>       0.00000000       0.00000000      13.28154876 </v>
    </varray>
    <i name="volume">    117.21403994 </i>
    <varray name="rec_basis" >
     <v>       0.31325634       0.18085862       0.00000000 </v>
     <v>      -0.00000000       0.36171724       0.00000000 </v>
     <v>       0.00000000       0.00000000       0.07529242 </v>
    </varray>
   </crystal>
   <varray name="positions" >
    <v>       0.33333300       0.66666700       0.25000000 </v>
    <v>       0.66666700       0.33333300       0.75000000 </v>
    <v>       0.33333300       0.66666700       0.86743573 </v>
    <v>       0.66666700       0.33333300       0.13256427 </v>
    <v>       0.66666600       0.33333300       0.36743573 </v>
    <v>       0.33333400       0.66666700       0.63256427 </v>
   </varray>
  </structure>
  <varray name="forces" >
   <v>       0.00000000       0.00000000       0.00000000 </v>
   <v>       0.00000000      -0.00000000       0.00000000 </v>
   <v>      -0.00000000       0.00000000       0.01265550 </v>
   <v>       0.00000000       0.00000000      -0.01265550 </v>
   <v>      -0.00000000       0.00000000       0.01265550 </v>
   <v>      -0.00000000      -0.00000000      -0.01265550 </v>
  </varray>
  <varray name="stress" >
   <v>      -5.42099779      -0.00000000       0.00000000 </v>
   <v>      -0.00000000      -5.42099851      -0.00000000 </v>
   <v>       0.00000000       0.00000000     -13.62081095 </v>
  </varray>
  <energy>
   <i name="e_fr_energy">    -45.04594463 </i>
   <i name="e_wo_entrp">    -45.04594463 </i>
   <i name="e_0_energy">      0.00000000 </i>
  </energy>
  <time name="totalsc">   12.61   13.01</time>
  <eigenvalues>
   <array>
    <dimension dim="1">band</dimension>
    <dimension dim="2">kpoint</dimension>
    <dimension dim="3">spin</dimension>
    <field>eigene</field>
    <field>occ</field>
    <set>
     <set comment="spin 1">
      <set comment="kpoint 1">
       <r>   -9.9104    1.0000 </r>
       <r>   -9.8111    1.0000 </r>
       <r>   -8.7227    1.0000 </r>
       <r>   -8.5547    1.0000 </r>
       <r>   -1.6488    1.0000 </r>
       <r>   -1.1252    1.0000 </r>
       <r>    1.5627    1.0000 </r>
       <r>    1.5627    1.0000 </r>
       <r>    1.5667    1.0000 </r>
       <r>    1.5667    1.0000 </r>
       <r>    1.8332    1.0000 </r>
       <r>    2.6692    1.0000 </r>
       <r>    2.6692    1.0000 </r>
       <r>    2.6834    1.0000 </r>
       <r>    2.6834    1.0000 </r>
       <r>    3.2209    1.0000 </r>
       <r>    3.8692    1.0000 </r>
       <r>    4.6298    1.0000 </r>
       <r>    6.9475    0.0000 </r>
       <r>    6.9628    0.0000 </r>
       <r>    7.0006    0.0000 </r>
       <r>    7.1631    0.0000 </r>
      </set>
      <set comment="kpoint 2">
       <r>   -9.7716    1.0000 </r>
       <r>   -9.6735    1.0000 </r>
       <r>   -8.6535    1.0000 </r>
       <r>   -8.4927    1.0000 </r>
       <r>   -1.4865    1.0000 </r>
       <r>   -0.9664    1.0000 </r>
       <r>    1.2502    1.0000 </r>
       <r>    1.2587    1.0000 </r>
       <r>    1.4647    1.0000 </r>
       <r>    1.7135    1.0000 </r>
       <r>    1.7202    1.0000 </r>
       <r>    2.0784    1.0000 </r>
       <r>    2.4427    1.0000 </r>
       <r>    2.4593    1.0000 </r>
       <r>    2.8603    1.0000 </r>
       <r>    3.5208    1.0000 </r>
       <r>    3.8518    1.0000 </r>
       <r>    4.4277    1.0000 </r>
       <r>    6.7600    0.0000 </r>
       <r>    6.7814    0.0000 </r>
       <r>    6.8576    0.0000 </r>
       <r>    6.9795    0.0000 </r>
      </set>
      <set comment="kpoint 3">
       <r>   -9.3843    1.0000 </r>
       <r>   -9.2911    1.0000 </r>
       <r>   -8.4614    1.0000 </r>
       <r>   -8.3220    1.0000 </r>
       <r>   -1.1102    1.0000 </r>
       <r>   -0.6368    1.0000 </r>
       <r>    0.5944    1.0000 </r>
       <r>    0.6488    1.0000 </r>
       <r>    0.8237    1.0000 </r>
       <r>    1.2238    1.0000 </r>
       <r>    1.9511    1.0000 </r>
       <r>    1.9718    1.0000 </r>
       <r>    2.1194    1.0000 </r>
       <r>    2.1342    1.0000 </r>
       <r>    2.8175    1.0000 </r>
       <r>    3.3777    1.0000 </r>
       <r>    3.6478    1.0000 </r>
       <r>    3.8317    1.0000 </r>
       <r>    6.1899    0.0000 </r>
       <r>    6.6406    0.0000 </r>
       <r>    6.7218    0.0000 </r>
       <r>    6.7290    0.0000 </r>
      </set>
      <set comment="kpoint 4">
       <r>   -8.8422    1.0000 </r>
       <r>   -8.7615    1.0000 </r>
       <r>   -8.1967    1.0000 </r>
       <r>   -8.0910    1.0000 </r>
       <r>   -1.0051    1.0000 </r>
       <r>   -0.7650    1.0000 </r>
       <r>    0.1470    1.0000 </r>
       <r>    0.1813    1.0000 </r>
       <r>    0.3818    1.0000 </r>
       <r>    0.4416    1.0000 </r>
       <r>    1.4653    1.0000 </r>
       <r>    1.4893    1.0000 </r>
       <r>    2.5123    1.0000 </r>
       <r>    2.6331    1.0000 </r>
       <r>    2.6648    1.0000 </r>
       <r>    2.9079    1.0000 </r>
       <r>    3.2222    1.0000 </r>
       <r>    3.3245    1.0000 </r>
       <r>    6.1884    0.0000 </r>
       <r>    6.3728    0.0000 </r>
       <r>    6.4425    0.0000 </r>
       <r>    6.7633    0.0000 </r>
      </set>
      <set comment="kpoint 5">
       <r>   -8.3259    1.0000 </r>
       <r>   -8.2688    1.0000 </r>
       <r>   -7.9507    1.0000 </r>
       <r>   -7.8865    1.0000 </r>
       <r>   -1.3861    1.0000 </r>
       <r>   -1.2535    1.0000 </r>
       <r>   -0.4080    1.0000 </r>
       <r>   -0.2735    1.0000 </r>
       <r>    0.0674    1.0000 </r>
       <r>    0.3772    1.0000 </r>
       <r>    1.1330    1.0000 </r>
       <r>    1.1587    1.0000 </r>
       <r>    2.3115    1.0000 </r>
       <r>    2.5397    1.0000 </r>
       <r>    3.0350    1.0000 </r>
       <r>    3.0911    1.0000 </r>
       <r>    3.2656    1.0000 </r>
       <r>    3.4047    1.0000 </r>
       <r>    6.3132    0.0000 </r>
       <r>    6.3507    0.0000 </r>
       <r>    6.5529    0.0000 </r>
       <r>    6.8569    0.0000 </r>
      </set>
      <set comment="kpoint 6">
       <r>   -8.0990    1.0000 </r>
       <r>   -8.0618    1.0000 </r>
       <r>   -7.8432    1.0000 </r>
       <r>   -7.8071    1.0000 </r>
       <r>   -1.5988    1.0000 </r>
       <r>   -1.4760    1.0000 </r>
       <r>   -0.6261    1.0000 </r>
       <r>   -0.5265    1.0000 </r>
       <r>   -0.0227    1.0000 </r>
       <r>    0.2762    1.0000 </r>
       <r>    1.0165    1.0000 </r>
       <r>    1.0428    1.0000 </r>
       <r>    2.2834    1.0000 </r>
       <r>    2.3844    1.0000 </r>
       <r>    3.1766    1.0000 </r>
       <r>    3.2456    1.0000 </r>
       <r>    3.5245    1.0000 </r>
       <r>    3.5677    1.0000 </r>
       <r>    6.3419    0.0000 </r>
       <r>    6.3607    0.0000 </r>
       <r>    6.8014    0.0000 </r>
       <r>    6.9433    0.0000 </r>
      </set>
      <set comment="kpoint 7">
       <r>   -9.5082    1.0000 </r>
       <r>   -9.4132    1.0000 </r>
       <r>   -8.5225    1.0000 </r>
       <r>   -8.3760    1.0000 </r>
       <r>   -1.2090    1.0000 </r>
       <r>   -0.7079    1.0000 </r>
       <r>    0.7955    1.0000 </r>
       <r>    0.7978    1.0000 </r>
       <r>    1.0600    1.0000 </r>
       <r>    1.5537    1.0000 </r>
       <r>    1.8953    1.0000 </r>
       <r>    1.9391    1.0000 </r>
       <r>    1.9729    1.0000 </r>
       <r>    1.9815    1.0000 </r>
       <r>    3.0421    1.0000 </r>
       <r>    3.5897    1.0000 </r>
       <r>    3.7415    1.0000 </r>
       <r>    4.0235    1.0000 </r>
       <r>    6.2775    0.0000 </r>
       <r>    6.5764    0.0000 </r>
       <r>    6.7032    0.0000 </r>
       <r>    6.7258    0.0000 </r>
      </set>
      <set comment="kpoint 8">
       <r>   -9.0405    1.0000 </r>
       <r>   -8.9542    1.0000 </r>
       <r>   -8.2913    1.0000 </r>
       <r>   -8.1722    1.0000 </r>
       <r>   -0.9201    1.0000 </r>
       <r>   -0.5678    1.0000 </r>
       <r>    0.3204    1.0000 </r>
       <r>    0.4512    1.0000 </r>
       <r>    0.5148    1.0000 </r>
       <r>    0.7666    1.0000 </r>
       <r>    1.2420    1.0000 </r>
       <r>    1.3893    1.0000 </r>
       <r>    2.2946    1.0000 </r>
       <r>    2.3094    1.0000 </r>
       <r>    2.9647    1.0000 </r>
       <r>    3.2869    1.0000 </r>
       <r>    3.4248    1.0000 </r>
       <r>    3.4685    1.0000 </r>
       <r>    5.9626    0.0000 </r>
       <r>    6.4066    0.0000 </r>
       <r>    6.5391    0.0000 </r>
       <r>    6.7542    0.0000 </r>
      </set>
      <set comment="kpoint 9">
       <r>   -8.5010    1.0000 </r>
       <r>   -8.4332    1.0000 </r>
       <r>   -8.0283    1.0000 </r>
       <r>   -7.9466    1.0000 </r>
       <r>   -1.1079    1.0000 </r>
       <r>   -0.9510    1.0000 </r>
       <r>   -0.1800    1.0000 </r>
       <r>   -0.0785    1.0000 </r>
       <r>    0.2111    1.0000 </r>
       <r>    0.4910    1.0000 </r>
       <r>    0.9888    1.0000 </r>
       <r>    1.1501    1.0000 </r>
       <r>    2.3843    1.0000 </r>
       <r>    2.4297    1.0000 </r>
       <r>    2.6187    1.0000 </r>
       <r>    2.7933    1.0000 </r>
       <r>    3.3835    1.0000 </r>
       <r>    3.4252    1.0000 </r>
       <r>    6.0924    0.0000 </r>
       <r>    6.4188    0.0000 </r>
       <r>    6.5843    0.0000 </r>
       <r>    6.8290    0.0000 </r>
      </set>
      <set comment="kpoint 10">
       <r>   -8.1113    1.0000 </r>
       <r>   -8.0704    1.0000 </r>
       <r>   -7.8401    1.0000 </r>
       <r>   -7.7977    1.0000 </r>
       <r>   -1.4070    1.0000 </r>
       <r>   -1.2867    1.0000 </r>
       <r>   -0.6443    1.0000 </r>
       <r>   -0.5946    1.0000 </r>
       <r>    0.0650    1.0000 </r>
       <r>    0.3512    1.0000 </r>
       <r>    0.9705    1.0000 </r>
       <r>    1.0674    1.0000 </r>
       <r>    2.3214    1.0000 </r>
       <r>    2.4708    1.0000 </r>
       <r>    2.4863    1.0000 </r>
       <r>    2.5659    1.0000 </r>
       <r>    3.6553    1.0000 </r>
       <r>    3.7226    1.0000 </r>
       <r>    6.3245    0.0000 </r>
       <r>    6.4210    0.0000 </r>
       <r>    6.7872    0.0000 </r>
       <r>    6.9719    0.0000 </r>
      </set>
      <set comment="kpoint 11">
       <r>   -8.5677    1.0000 </r>
       <r>   -8.4962    1.0000 </r>
       <r>   -8.0555    1.0000 </r>
       <r>   -7.9671    1.0000 </r>
       <r>   -0.9290    1.0000 </r>
       <r>   -0.7485    1.0000 </r>
       <r>   -0.0204    1.0000 </r>
       <r>    0.0435    1.0000 </r>
       <r>    0.3921    1.0000 </r>
       <r>    0.5652    1.0000 </r>
       <r>    0.7144    1.0000 </r>
       <r>    1.0653    1.0000 </r>
       <r>    1.9497    1.0000 </r>
       <r>    1.9626    1.0000 </r>
       <r>    2.9353    1.0000 </r>
       <r>    2.9894    1.0000 </r>
       <r>    3.4107    1.0000 </r>
       <r>    3.4113    1.0000 </r>
       <r>    5.9298    0.0000 </r>
       <r>    6.4679    0.0000 </r>
       <r>    6.6281    0.0000 </r>
       <r>    6.8431    0.0000 </r>
      </set>
      <set comment="kpoint 12">
       <r>   -8.1305    1.0000 </r>
       <r>   -8.0843    1.0000 </r>
       <r>   -7.8343    1.0000 </r>
       <r>   -7.7831    1.0000 </r>
       <r>   -1.0315    1.0000 </r>
       <r>   -0.9163    1.0000 </r>
       <r>   -0.6996    1.0000 </r>
       <r>   -0.6595    1.0000 </r>
       <r>    0.3738    1.0000 </r>
       <r>    0.5633    1.0000 </r>
       <r>    0.8298    1.0000 </r>
       <r>    1.1190    1.0000 </r>
       <r>    1.4723    1.0000 </r>
       <r>    1.5866    1.0000 </r>
       <r>    2.4715    1.0000 </r>
       <r>    2.6015    1.0000 </r>
       <r>    3.6550    1.0000 </r>
       <r>    3.7012    1.0000 </r>
       <r>    6.1927    0.0000 </r>
       <r>    6.4554    0.0000 </r>
       <r>    6.8591    0.0000 </r>
       <r>    7.1330    0.0000 </r>
      </set>
      <set comment="kpoint 13">
       <r>   -7.9430    1.0000 </r>
       <r>   -7.9180    1.0000 </r>
       <r>   -7.7364    1.0000 </r>
       <r>   -7.7116    1.0000 </r>
       <r>   -1.0427    1.0000 </r>
       <r>   -0.9644    1.0000 </r>
       <r>   -0.9443    1.0000 </r>
       <r>   -0.9299    1.0000 </r>
       <r>    0.1613    1.0000 </r>
       <r>    0.3885    1.0000 </r>
       <r>    0.9956    1.0000 </r>
       <r>    1.1973    1.0000 </r>
       <r>    1.4107    1.0000 </r>
       <r>    1.5284    1.0000 </r>
       <r>    2.1839    1.0000 </r>
       <r>    2.3789    1.0000 </r>
       <r>    3.8862    1.0000 </r>
       <r>    3.9666    1.0000 </r>
       <r>    6.1345    0.0000 </r>
       <r>    6.1797    0.0000 </r>
       <r>    7.2708    0.0000 </r>
       <r>    7.4929    0.0000 </r>
      </set>
      <set comment="kpoint 14">
       <r>   -7.8808    1.0000 </r>
       <r>   -7.8629    1.0000 </r>
       <r>   -7.6931    1.0000 </r>
       <r>   -7.6743    1.0000 </r>
       <r>   -1.1243    1.0000 </r>
       <r>   -1.0650    1.0000 </r>
       <r>   -0.6437    1.0000 </r>
       <r>   -0.5708    1.0000 </r>
       <r>    0.3653    1.0000 </r>
       <r>    0.4098    1.0000 </r>
       <r>    0.6478    1.0000 </r>
       <r>    0.7823    1.0000 </r>
       <r>    1.0949    1.0000 </r>
       <r>    1.3003    1.0000 </r>
       <r>    2.1091    1.0000 </r>
       <r>    2.2585    1.0000 </r>
       <r>    4.0167    1.0000 </r>
       <r>    4.0850    1.0000 </r>
       <r>    5.9292    0.0000 </r>
       <r>    5.9655    0.0000 </r>
       <r>    7.0011    0.0000 </r>
       <r>    7.4437    0.0000 </r>
      </set>
      <set comment="kpoint 15">
       <r>   -9.8878    1.0000 </r>
       <r>   -9.8383    1.0000 </r>
       <r>   -8.6786    1.0000 </r>
       <r>   -8.5949    1.0000 </r>
       <r>   -1.5345    1.0000 </r>
       <r>   -1.2761    1.0000 </r>
       <r>    1.5637    1.0000 </r>
       <r>    1.5637    1.0000 </r>
       <r>    1.5657    1.0000 </r>
       <r>    1.5657    1.0000 </r>
       <r>    2.1174    1.0000 </r>
       <r>    2.6728    1.0000 </r>
       <r>    2.6728    1.0000 </r>
       <r>    2.6799    1.0000 </r>
       <r>    2.6799    1.0000 </r>
       <r>    2.7470    1.0000 </r>
       <r>    4.2030    1.0000 </r>
       <r>    4.5225    1.0000 </r>
       <r>    6.9427    0.0000 </r>
       <r>    6.9599    0.0000 </r>
       <r>    6.9888    0.0000 </r>
       <r>    7.1024    0.0000 </r>
      </set>
      <set comment="kpoint 16">
       <r>   -9.7493    1.0000 </r>
       <r>   -9.7005    1.0000 </r>
       <r>   -8.6111    1.0000 </r>
       <r>   -8.5310    1.0000 </r>
       <r>   -1.3745    1.0000 </r>
       <r>   -1.1184    1.0000 </r>
       <r>    1.2515    1.0000 </r>
       <r>    1.2558    1.0000 </r>
       <r>    1.6624    1.0000 </r>
       <r>    1.7151    1.0000 </r>
       <r>    1.7185    1.0000 </r>
       <r>    1.9689    1.0000 </r>
       <r>    2.4469    1.0000 </r>
       <r>    2.4552    1.0000 </r>
       <r>    2.9296    1.0000 </r>
       <r>    3.1953    1.0000 </r>
       <r>    4.1292    1.0000 </r>
       <r>    4.3567    1.0000 </r>
       <r>    6.7631    0.0000 </r>
       <r>    6.8221    0.0000 </r>
       <r>    6.9299    0.0000 </r>
       <r>    6.9851    0.0000 </r>
      </set>
      <set comment="kpoint 17">
       <r>   -9.3632    1.0000 </r>
       <r>   -9.3169    1.0000 </r>
       <r>   -8.4242    1.0000 </r>
       <r>   -8.3548    1.0000 </r>
       <r>   -1.0107    1.0000 </r>
       <r>   -0.7790    1.0000 </r>
       <r>    0.5994    1.0000 </r>
       <r>    0.6202    1.0000 </r>
       <r>    0.9717    1.0000 </r>
       <r>    1.1587    1.0000 </r>
       <r>    1.9559    1.0000 </r>
       <r>    1.9663    1.0000 </r>
       <r>    2.1235    1.0000 </r>
       <r>    2.1308    1.0000 </r>
       <r>    2.9123    1.0000 </r>
       <r>    3.1687    1.0000 </r>
       <r>    3.7466    1.0000 </r>
       <r>    3.8152    1.0000 </r>
       <r>    6.2949    0.0000 </r>
       <r>    6.5166    0.0000 </r>
       <r>    6.6635    0.0000 </r>
       <r>    6.7273    0.0000 </r>
      </set>
      <set comment="kpoint 18">
       <r>   -8.8242    1.0000 </r>
       <r>   -8.7842    1.0000 </r>
       <r>   -8.1678    1.0000 </r>
       <r>   -8.1153    1.0000 </r>
       <r>   -0.9504    1.0000 </r>
       <r>   -0.8310    1.0000 </r>
       <r>    0.1442    1.0000 </r>
       <r>    0.1699    1.0000 </r>
       <r>    0.4095    1.0000 </r>
       <r>    0.4425    1.0000 </r>
       <r>    1.4712    1.0000 </r>
       <r>    1.4832    1.0000 </r>
       <r>    2.5944    1.0000 </r>
       <r>    2.6411    1.0000 </r>
       <r>    2.6570    1.0000 </r>
       <r>    2.7856    1.0000 </r>
       <r>    3.2650    1.0000 </r>
       <r>    3.3099    1.0000 </r>
       <r>    6.3017    0.0000 </r>
       <r>    6.3893    0.0000 </r>
       <r>    6.4239    0.0000 </r>
       <r>    6.5555    0.0000 </r>
      </set>
      <set comment="kpoint 19">
       <r>   -8.3133    1.0000 </r>
       <r>   -8.2850    1.0000 </r>
       <r>   -7.9327    1.0000 </r>
       <r>   -7.9009    1.0000 </r>
       <r>   -1.3549    1.0000 </r>
       <r>   -1.2886    1.0000 </r>
       <r>   -0.3875    1.0000 </r>
       <r>   -0.3268    1.0000 </r>
       <r>    0.1670    1.0000 </r>
       <r>    0.3152    1.0000 </r>
       <r>    1.1393    1.0000 </r>
       <r>    1.1521    1.0000 </r>
       <r>    2.3597    1.0000 </r>
       <r>    2.4719    1.0000 </r>
       <r>    3.0490    1.0000 </r>
       <r>    3.0771    1.0000 </r>
       <r>    3.3098    1.0000 </r>
       <r>    3.3776    1.0000 </r>
       <r>    6.3221    0.0000 </r>
       <r>    6.3408    0.0000 </r>
       <r>    6.6196    0.0000 </r>
       <r>    6.7676    0.0000 </r>
      </set>
      <set comment="kpoint 20">
       <r>   -8.0906    1.0000 </r>
       <r>   -8.0722    1.0000 </r>
       <r>   -7.8331    1.0000 </r>
       <r>   -7.8152    1.0000 </r>
       <r>   -1.5695    1.0000 </r>
       <r>   -1.5081    1.0000 </r>
       <r>   -0.6107    1.0000 </r>
       <r>   -0.5644    1.0000 </r>
       <r>    0.0668    1.0000 </r>
       <r>    0.2128    1.0000 </r>
       <r>    1.0229    1.0000 </r>
       <r>    1.0361    1.0000 </r>
       <r>    2.3061    1.0000 </r>
       <r>    2.3564    1.0000 </r>
       <r>    3.1938    1.0000 </r>
       <r>    3.2283    1.0000 </r>
       <r>    3.5366    1.0000 </r>
       <r>    3.5581    1.0000 </r>
       <r>    6.3463    0.0000 </r>
       <r>    6.3557    0.0000 </r>
       <r>    6.8385    0.0000 </r>
       <r>    6.9111    0.0000 </r>
      </set>
      <set comment="kpoint 21">
       <r>   -9.4867    1.0000 </r>
       <r>   -9.4394    1.0000 </r>
       <r>   -8.4835    1.0000 </r>
       <r>   -8.4106    1.0000 </r>
       <r>   -1.1034    1.0000 </r>
       <r>   -0.8580    1.0000 </r>
       <r>    0.7917    1.0000 </r>
       <r>    0.7931    1.0000 </r>
       <r>    1.2257    1.0000 </r>
       <r>    1.4658    1.0000 </r>
       <r>    1.9028    1.0000 </r>
       <r>    1.9237    1.0000 </r>
       <r>    1.9768    1.0000 </r>
       <r>    1.9805    1.0000 </r>
       <r>    3.1182    1.0000 </r>
       <r>    3.3483    1.0000 </r>
       <r>    3.8991    1.0000 </r>
       <r>    3.9976    1.0000 </r>
       <r>    6.3571    0.0000 </r>
       <r>    6.4980    0.0000 </r>
       <r>    6.7322    0.0000 </r>
       <r>    6.7920    0.0000 </r>
      </set>
      <set comment="kpoint 22">
       <r>   -9.0212    1.0000 </r>
       <r>   -8.9783    1.0000 </r>
       <r>   -8.2591    1.0000 </r>
       <r>   -8.1998    1.0000 </r>
       <r>   -0.8431    1.0000 </r>
       <r>   -0.6689    1.0000 </r>
       <r>    0.3248    1.0000 </r>
       <r>    0.3634    1.0000 </r>
       <r>    0.6531    1.0000 </r>
       <r>    0.7465    1.0000 </r>
       <r>    1.2781    1.0000 </r>
       <r>    1.3538    1.0000 </r>
       <r>    2.2981    1.0000 </r>
       <r>    2.3054    1.0000 </r>
       <r>    3.0234    1.0000 </r>
       <r>    3.1760    1.0000 </r>
       <r>    3.4520    1.0000 </r>
       <r>    3.4666    1.0000 </r>
       <r>    6.0734    0.0000 </r>
       <r>    6.2924    0.0000 </r>
       <r>    6.5540    0.0000 </r>
       <r>    6.9497    0.0000 </r>
      </set>
      <set comment="kpoint 23">
       <r>   -8.4860    1.0000 </r>
       <r>   -8.4524    1.0000 </r>
       <r>   -8.0056    1.0000 </r>
       <r>   -7.9650    1.0000 </r>
       <r>   -1.0710    1.0000 </r>
       <r>   -0.9927    1.0000 </r>
       <r>   -0.1638    1.0000 </r>
       <r>   -0.1167    1.0000 </r>
       <r>    0.2882    1.0000 </r>
       <r>    0.4213    1.0000 </r>
       <r>    1.0443    1.0000 </r>
       <r>    1.1225    1.0000 </r>
       <r>    2.3908    1.0000 </r>
       <r>    2.4121    1.0000 </r>
       <r>    2.6591    1.0000 </r>
       <r>    2.7442    1.0000 </r>
       <r>    3.3974    1.0000 </r>
       <r>    3.4176    1.0000 </r>
       <r>    6.1807    0.0000 </r>
       <r>    6.3493    0.0000 </r>
       <r>    6.6030    0.0000 </r>
       <r>    6.6847    0.0000 </r>
      </set>
      <set comment="kpoint 24">
       <r>   -8.1022    1.0000 </r>
       <r>   -8.0819    1.0000 </r>
       <r>   -7.8282    1.0000 </r>
       <r>   -7.8072    1.0000 </r>
       <r>   -1.3783    1.0000 </r>
       <r>   -1.3182    1.0000 </r>
       <r>   -0.6361    1.0000 </r>
       <r>   -0.6123    1.0000 </r>
       <r>    0.1368    1.0000 </r>
       <r>    0.2773    1.0000 </r>
       <r>    1.0056    1.0000 </r>
       <r>    1.0527    1.0000 </r>
       <r>    2.3466    1.0000 </r>
       <r>    2.4145    1.0000 </r>
       <r>    2.5183    1.0000 </r>
       <r>    2.5531    1.0000 </r>
       <r>    3.6742    1.0000 </r>
       <r>    3.7076    1.0000 </r>
       <r>    6.3490    0.0000 </r>
       <r>    6.3971    0.0000 </r>
       <r>    6.8251    0.0000 </r>
       <r>    6.9140    0.0000 </r>
      </set>
      <set comment="kpoint 25">
       <r>   -8.5519    1.0000 </r>
       <r>   -8.5165    1.0000 </r>
       <r>   -8.0310    1.0000 </r>
       <r>   -7.9872    1.0000 </r>
       <r>   -0.8860    1.0000 </r>
       <r>   -0.7958    1.0000 </r>
       <r>   -0.0059    1.0000 </r>
       <r>    0.0261    1.0000 </r>
       <r>    0.4054    1.0000 </r>
       <r>    0.4675    1.0000 </r>
       <r>    0.8667    1.0000 </r>
       <r>    1.0180    1.0000 </r>
       <r>    1.9502    1.0000 </r>
       <r>    1.9566    1.0000 </r>
       <r>    2.9401    1.0000 </r>
       <r>    2.9664    1.0000 </r>
       <r>    3.4113    1.0000 </r>
       <r>    3.4116    1.0000 </r>
       <r>    6.0450    0.0000 </r>
       <r>    6.3010    0.0000 </r>
       <r>    6.6494    0.0000 </r>
       <r>    6.6971    0.0000 </r>
      </set>
      <set comment="kpoint 26">
       <r>   -8.1203    1.0000 </r>
       <r>   -8.0974    1.0000 </r>
       <r>   -7.8199    1.0000 </r>
       <r>   -7.7945    1.0000 </r>
       <r>   -1.0044    1.0000 </r>
       <r>   -0.9470    1.0000 </r>
       <r>   -0.6881    1.0000 </r>
       <r>   -0.6684    1.0000 </r>
       <r>    0.3982    1.0000 </r>
       <r>    0.4824    1.0000 </r>
       <r>    0.9378    1.0000 </r>
       <r>    1.0719    1.0000 </r>
       <r>    1.5036    1.0000 </r>
       <r>    1.5612    1.0000 </r>
       <r>    2.4956    1.0000 </r>
       <r>    2.5612    1.0000 </r>
       <r>    3.6677    1.0000 </r>
       <r>    3.6907    1.0000 </r>
       <r>    6.2601    0.0000 </r>
       <r>    6.3929    0.0000 </r>
       <r>    6.9059    0.0000 </r>
       <r>    7.3939    0.0000 </r>
      </set>
      <set comment="kpoint 27">
       <r>   -7.9373    1.0000 </r>
       <r>   -7.9248    1.0000 </r>
       <r>   -7.7296    1.0000 </r>
       <r>   -7.7172    1.0000 </r>
       <r>   -1.0225    1.0000 </r>
       <r>   -0.9826    1.0000 </r>
       <r>   -0.9422    1.0000 </r>
       <r>   -0.9344    1.0000 </r>
       <r>    0.2040    1.0000 </r>
       <r>    0.3137    1.0000 </r>
       <r>    1.0640    1.0000 </r>
       <r>    1.1604    1.0000 </r>
       <r>    1.4469    1.0000 </r>
       <r>    1.5079    1.0000 </r>
       <r>    2.2215    1.0000 </r>
       <r>    2.3205    1.0000 </r>
       <r>    3.9073    1.0000 </r>
       <r>    3.9473    1.0000 </r>
       <r>    6.1469    0.0000 </r>
       <r>    6.1695    0.0000 </r>
       <r>    7.2547    0.0000 </r>
       <r>    7.4052    0.0000 </r>
      </set>
      <set comment="kpoint 28">
       <r>   -7.8766    1.0000 </r>
       <r>   -7.8677    1.0000 </r>
       <r>   -7.6881    1.0000 </r>
       <r>   -7.6787    1.0000 </r>
       <r>   -1.1106    1.0000 </r>
       <r>   -1.0811    1.0000 </r>
       <r>   -0.6224    1.0000 </r>
       <r>   -0.5858    1.0000 </r>
       <r>    0.3720    1.0000 </r>
       <r>    0.3984    1.0000 </r>
       <r>    0.6482    1.0000 </r>
       <r>    0.7110    1.0000 </r>
       <r>    1.1996    1.0000 </r>
       <r>    1.2978    1.0000 </r>
       <r>    2.1269    1.0000 </r>
       <r>    2.2053    1.0000 </r>
       <r>    4.0330    1.0000 </r>
       <r>    4.0670    1.0000 </r>
       <r>    5.9390    0.0000 </r>
       <r>    5.9571    0.0000 </r>
       <r>    7.1132    0.0000 </r>
       <r>    7.3535    0.0000 </r>
      </set>
     </set>
    </set>
   </array>
  </eigenvalues>
  <separator name="orbital magnetization" >
   <v name="MAGDIPOLOUT">      0.00000000      0.00000000      0.00000000</v>
  </separator>
  <dos>
   <i name="efermi">      4.63000031 </i>
   <total>
    <array>
     <dimension dim="1">gridpoints</dimension>
     <dimension dim="2">spin</dimension>
     <field>energy</field>
     <field>total</field>
     <field>integrated</field>
     <set>
      <set comment="spin 1">
       <r>   -12.0000     0.0000     0.0000 </r>
       <r>   -11.9900     0.0000     0.0000 </r>
       <r>   -11.9800     0.0000     0.0000 </r>
       <r>   -11.9700     0.0000     0.0000 </r>
       <r>   -11.9600     0.0000     0.0000 </r>
       <r>   -11.9500     0.0000     0.0000 </r>
       <r>   -11.9400     0.0000     0.0000 </r>
       <r>   -11.9300     0.0000     0.0000 </r>
       <r>   -11.9200     0.0000     0.0000 </r>
       <r>   -11.9100     0.0000     0.0000 </r>
       <r>   -11.9000     0.0000     0.0000 </r>
       <r>   -11.8900     0.0000     0.0000 </r>
       <r>   -11.8800     0.0000     0.0000 </r>
       <r>   -11.8700     0.0000     0.0000 </r>
       <r>   -11.8600     0.0000     0.0000 </r>
       <r>   -11.8500     0.0000     0.0000 </r>
       <r>   -11.8400     0.0000     0.0000 </r>
       <r>   -11.8300     0.0000     0.0000 </r>
       <r>   -11.8200     0.0000     0.0000 </r>
       <r>   -11.8100     0.0000     0.0000 </r>
       <r>   -11.8000     0.0000     0.0000 </r>
       <r>   -11.7900     0.0000     0.0000 </r>
       <r>   -11.7800     0.0000     0.0000 </r>
       <r>   -11.7700     0.0000     0.0000 </r>
       <r>   -11.7600     0.0000     0.0000 </r>
       <r>   -11.7500     0.0000     0.0000 </r>
       <r>   -11.7400     0.0000     0.0000 </r>
       <r>   -11.7300     0.0000     0.0000 </r>
       <r>   -11.7200     0.0000     0.0000 </r>
       <r>   -11.7100     0.0000     0.0000 </r>
       <r>   -11.7000     0.0000     0.0000 </r>
       <r>   -11.6900     0.0000     0.0000 </r>
       <r>   -11.6800     0.0000     0.0000 </r>
       <r>   -11.6700     0.0000     0.0000 </r>
       <r>   -11.6600     0.0000     0.0000 </r>
       <r>   -11.6500     0.0000     0.0000 </r>
       <r>   -11.6400     0.0000     0.0000 </r>
       <r>   -11.6300     0.0000     0.0000 </r>
       <r>   -11.6200     0.0000     0.0000 </r>
       <r>   -11.6100     0.0000     0.0000 </r>
       <r>   -11.6000     0.0000     0.0000 </r>
       <r>   -11.5900     0.0000     0.0000 </r>
       <r>   -11.5800     0.0000     0.0000 </r>
       <r>   -11.5700     0.0000     0.0000 </r>
       <r>   -11.5600     0.0000     0.0000 </r>
       <r>   -11.5500     0.0000     0.0000 </r>
       <r>   -11.5400     0.0000     0.0000 </r>
       <r>   -11.5300     0.0000     0.0000 </r>
       <r>   -11.5200     0.0000     0.0000 </r>
       <r>   -11.5100     0.0000     0.0000 </r>
       <r>   -11.5000     0.0000     0.0000 </r>
       <r>   -11.4900     0.0000     0.0000 </r>
       <r>   -11.4800     0.0000     0.0000 </r>
       <r>   -11.4700     0.0000     0.0000 </r>
       <r>   -11.4600     0.0000     0.0000 </r>
       <r>   -11.4500     0.0000     0.0000 </r>
       <r>   -11.4400     0.0000     0.0000 </r>
       <r>   -11.4300     0.0000     0.0000 </r>
       <r>   -11.4200     0.0000     0.0000 </r>
       <r>   -11.4100     0.0000     0.0000 </r>
       <r>   -11.4000     0.0000     0.0000 </r>
       <r>   -11.3900     0.0000     0.0000 </r>
       <r>   -11.3800     0.0000     0.0000 </r>
       <r>   -11.3700     0.0000     0.0000 </r>
       <r>   -11.3600     0.0000     0.0000 </r>
       <r>   -11.3500     0.0000     0.0000 </r>
       <r>   -11.3400     0.0000     0.0000 </r>
       <r>   -11.3300     0.0000     0.0000 </r>
       <r>   -11.3200     0.0000     0.0000 </r>
       <r>   -11.3100     0.0000     0.0000 </r>
       <r>   -11.3000     0.0000     0.0000 </r>
       <r>   -11.2900     0.0000     0.0000 </r>
       <r>   -11.2800     0.0000     0.0000 </r>
       <r>   -11.2700     0.0000     0.0000 </r>
       <r>   -11.2600     0.0000     0.0000 </r>
       <r>   -11.2500     0.0000     0.0000 </r>
       <r>   -11.2400     0.0000     0.0000 </r>
       <r>   -11.2300     0.0000     0.0000 </r>
       <r>   -11.2200     0.0000     0.0000 </r>
       <r>   -11.2100     0.0000     0.0000 </r>
       <r>   -11.2000     0.0000     0.0000 </r>
       <r>   -11.1900     0.0000     0.0000 </r>
       <r>   -11.1800     0.0000     0.0000 </r>
       <r>   -11.1700     0.0000     0.0000 </r>
       <r>   -11.1600     0.0000     0.0000 </r>
       <r>   -11.1500     0.0000     0.0000 </r>
       <r>   -11.1400     0.0000     0.0000 </r>
       <r>   -11.1300     0.0000     0.0000 </r>
       <r>   -11.1200     0.0000     0.0000 </r>
       <r>   -11.1100     0.0000     0.0000 </r>
       <r>   -11.1000     0.0000     0.0000 </r>
       <r>   -11.0900     0.0000     0.0000 </r>
       <r>   -11.0800     0.0000     0.0000 </r>
       <r>   -11.0700     0.0000     0.0000 </r>
       <r>   -11.0600     0.0000     0.0000 </r>
       <r>   -11.0500     0.0000     0.0000 </r>
       <r>   -11.0400     0.0000     0.0000 </r>
       <r>   -11.0300     0.0000     0.0000 </r>
       <r>   -11.0200     0.0000     0.0000 </r>
       <r>   -11.0100     0.0000     0.0000 </r>
       <r>   -11.0000     0.0000     0.0000 </r>
       <r>   -10.9900     0.0000     0.0000 </r>
       <r>   -10.9800     0.0000     0.0000 </r>
       <r>   -10.9700     0.0000     0.0000 </r>
       <r>   -10.9600     0.0000     0.0000 </r>
       <r>   -10.9500     0.0000     0.0000 </r>
       <r>   -10.9400     0.0000     0.0000 </r>
       <r>   -10.9300     0.0000     0.0000 </r>
       <r>   -10.9200     0.0000     0.0000 </r>
       <r>   -10.9100     0.0000     0.0000 </r>
       <r>   -10.9000     0.0000     0.0000 </r>
       <r>   -10.8900     0.0000     0.0000 </r>
       <r>   -10.8800     0.0000     0.0000 </r>
       <r>   -10.8700     0.0000     0.0000 </r>
       <r>   -10.8600     0.0000     0.0000 </r>
       <r>   -10.8500     0.0000     0.0000 </r>
       <r>   -10.8400     0.0000     0.0000 </r>
       <r>   -10.8300     0.0000     0.0000 </r>
       <r>   -10.8200     0.0000     0.0000 </r>
       <r>   -10.8100     0.0000     0.0000 </r>
       <r>   -10.8000     0.0000     0.0000 </r>
       <r>   -10.7900     0.0000     0.0000 </r>
       <r>   -10.7800     0.0000     0.0000 </r>
       <r>   -10.7700     0.0000     0.0000 </r>
       <r>   -10.7600     0.0000     0.0000 </r>
       <r>   -10.7500     0.0000     0.0000 </r>
       <r>   -10.7400     0.0000     0.0000 </r>
       <r>   -10.7300     0.0000     0.0000 </r>
       <r>   -10.7200     0.0000     0.0000 </r>
       <r>   -10.7100     0.0000     0.0000 </r>
       <r>   -10.7000     0.0000     0.0000 </r>
       <r>   -10.6900     0.0000     0.0000 </r>
       <r>   -10.6800     0.0000     0.0000 </r>
       <r>   -10.6700     0.0000     0.0000 </r>
       <r>   -10.6600     0.0000     0.0000 </r>
       <r>   -10.6500     0.0000     0.0000 </r>
       <r>   -10.6400     0.0000     0.0000 </r>
       <r>   -10.6300     0.0000     0.0000 </r>
       <r>   -10.6200     0.0000     0.0000 </r>
       <r>   -10.6100     0.0000     0.0000 </r>
       <r>   -10.6000     0.0000     0.0000 </r>
       <r>   -10.5900     0.0000     0.0000 </r>
       <r>   -10.5800     0.0000     0.0000 </r>
       <r>   -10.5700     0.0000     0.0000 </r>
       <r>   -10.5600     0.0000     0.0000 </r>
       <r>   -10.5500     0.0000     0.0000 </r>
       <r>   -10.5400     0.0000     0.0000 </r>
       <r>   -10.5300     0.0000     0.0000 </r>
       <r>   -10.5200     0.0000     0.0000 </r>
       <r>   -10.5100     0.0000     0.0000 </r>
       <r>   -10.5000     0.0000     0.0000 </r>
       <r>   -10.4900     0.0000     0.0000 </r>
       <r>   -10.4800     0.0000     0.0000 </r>
       <r>   -10.4700     0.0000     0.0000 </r>
       <r>   -10.4600     0.0000     0.0000 </r>
       <r>   -10.4500     0.0000     0.0000 </r>
       <r>   -10.4400     0.0000     0.0000 </r>
       <r>   -10.4300     0.0000     0.0000 </r>
       <r>   -10.4200     0.0000     0.0000 </r>
       <r>   -10.4100     0.0000     0.0000 </r>
       <r>   -10.4000     0.0000     0.0000 </r>
       <r>   -10.3900     0.0000     0.0000 </r>
       <r>   -10.3800     0.0000     0.0000 </r>
       <r>   -10.3700     0.0000     0.0000 </r>
       <r>   -10.3600     0.0000     0.0000 </r>
       <r>   -10.3500     0.0000     0.0000 </r>
       <r>   -10.3400     0.0000     0.0000 </r>
       <r>   -10.3300     0.0000     0.0000 </r>
       <r>   -10.3200     0.0000     0.0000 </r>
       <r>   -10.3100     0.0000     0.0000 </r>
       <r>   -10.3000     0.0000     0.0000 </r>
       <r>   -10.2900     0.0000     0.0000 </r>
       <r>   -10.2800     0.0000     0.0000 </r>
       <r>   -10.2700     0.0000     0.0000 </r>
       <r>   -10.2600     0.0000     0.0000 </r>
       <r>   -10.2500     0.0000     0.0000 </r>
       <r>   -10.2400     0.0000     0.0000 </r>
       <r>   -10.2300     0.0000     0.0000 </r>
       <r>   -10.2200     0.0000     0.0000 </r>
       <r>   -10.2100     0.0000     0.0000 </r>
       <r>   -10.2000     0.0000     0.0000 </r>
       <r>   -10.1900     0.0000     0.0000 </r>
       <r>   -10.1800     0.0000     0.0000 </r>
       <r>   -10.1700     0.0000     0.0000 </r>
[...]
        <r>  0.0012  0.0457  0.0085  0.0489  0.0000  0.0000  0.0000  0.0000  0.0000 </r>
        <r>  0.0012  0.0644  0.0085  0.0301  0.0000  0.0000  0.0000  0.0000  0.0000 </r>
        <r>  0.0012  0.0644  0.0085  0.0301  0.0000  0.0000  0.0000  0.0000  0.0000 </r>
       </set>
       <set comment="band 13">
        <r>  0.0138  0.0163  0.0005  0.0284  0.0027  0.0025  0.0148  0.0014  0.0080 </r>
        <r>  0.0138  0.0163  0.0005  0.0284  0.0027  0.0025  0.0148  0.0014  0.0080 </r>
        <r>  0.0062  0.0486  0.0276  0.0254  0.0000  0.0000  0.0000  0.0000  0.0000 </r>
        <r>  0.0062  0.0486  0.0276  0.0254  0.0000  0.0000  0.0000  0.0000  0.0000 </r>
        <r>  0.0062  0.0606  0.0276  0.0134  0.0000  0.0000  0.0000  0.0000  0.0000 </r>
        <r>  0.0062  0.0606  0.0276  0.0134  0.0000  0.0000  0.0000  0.0000  0.0000 </r>
       </set>
       <set comment="band 14">
        <r>  0.0157  0.0163  0.0010  0.0275  0.0025  0.0030  0.0176  0.0015  0.0075 </r>
        <r>  0.0157  0.0163  0.0010  0.0275  0.0025  0.0030  0.0176  0.0015  0.0075 </r>
        <r>  0.0059  0.0644  0.0257  0.0119  0.0000  0.0000  0.0000  0.0000  0.0000 </r>
        <r>  0.0059  0.0643  0.0257  0.0119  0.0000  0.0000  0.0000  0.0000  0.0000 </r>
        <r>  0.0059  0.0482  0.0257  0.0280  0.0000  0.0000  0.0000  0.0000  0.0000 </r>
        <r>  0.0059  0.0482  0.0257  0.0280  0.0000  0.0000  0.0000  0.0000  0.0000 </r>
       </set>
       <set comment="band 15">
        <r>  0.0005  0.0000  0.0109  0.0000  0.0000  0.0348  0.0005  0.0726  0.0000 </r>
        <r>  0.0005  0.0000  0.0109  0.0000  0.0000  0.0348  0.0005  0.0726  0.0000 </r>
        <r>  0.0078  0.0085  0.0908  0.0083  0.0000  0.0000  0.0000  0.0000  0.0000 </r>
        <r>  0.0078  0.0085  0.0908  0.0083  0.0000  0.0000  0.0000  0.0000  0.0000 </r>
        <r>  0.0078  0.0058  0.0908  0.0110  0.0000  0.0000  0.0000  0.0000  0.0000 </r>
        <r>  0.0078  0.0058  0.0908  0.0110  0.0000  0.0000  0.0000  0.0000  0.0000 </r>
       </set>
       <set comment="band 16">
        <r>  0.0005  0.0000  0.0182  0.0000  0.0001  0.0272  0.0004  0.0625  0.0000 </r>
        <r>  0.0005  0.0000  0.0182  0.0000  0.0001  0.0272  0.0004  0.0625  0.0000 </r>
        <r>  0.0068  0.0111  0.0838  0.0180  0.0000  0.0000  0.0000  0.0000  0.0000 </r>
        <r>  0.0068  0.0111  0.0838  0.0180  0.0000  0.0000  0.0000  0.0000  0.0000 </r>
        <r>  0.0068  0.0145  0.0838  0.0146  0.0000  0.0000  0.0000  0.0000  0.0000 </r>
        <r>  0.0068  0.0145  0.0838  0.0146  0.0000  0.0000  0.0000  0.0000  0.0000 </r>
       </set>
       <set comment="band 17">
        <r>  0.0025  0.0032  0.0001  0.0069  0.1239  0.0000  0.0497  0.0000  0.1370 </r>
        <r>  0.0025  0.0032  0.0001  0.0069  0.1239  0.0000  0.0497  0.0000  0.1370 </r>
        <r>  0.0000  0.0228  0.0056  0.0097  0.0000  0.0000  0.0000  0.0000  0.0000 </r>
        <r>  0.0000  0.0228  0.0056  0.0097  0.0000  0.0000  0.0000  0.0000  0.0000 </r>
        <r>  0.0000  0.0198  0.0056  0.0127  0.0000  0.0000  0.0000  0.0000  0.0000 </r>
        <r>  0.0000  0.0198  0.0056  0.0127  0.0000  0.0000  0.0000  0.0000  0.0000 </r>
       </set>
       <set comment="band 18">
        <r>  0.0020  0.0032  0.0001  0.0064  0.1229  0.0000  0.0536  0.0000  0.1380 </r>
        <r>  0.0020  0.0032  0.0001  0.0064  0.1229  0.0000  0.0536  0.0000  0.1380 </r>
        <r>  0.0000  0.0206  0.0056  0.0131  0.0000  0.0000  0.0000  0.0000  0.0000 </r>
        <r>  0.0000  0.0205  0.0056  0.0131  0.0000  0.0000  0.0000  0.0000  0.0000 </r>
        <r>  0.0000  0.0233  0.0056  0.0104  0.0000  0.0000  0.0000  0.0000  0.0000 </r>
        <r>  0.0000  0.0233  0.0056  0.0104  0.0000  0.0000  0.0000  0.0000  0.0000 </r>
       </set>
       <set comment="band 19">
        <r>  0.0126  0.0014  0.0000  0.0005  0.0371  0.0002  0.3006  0.0002  0.0605 </r>
        <r>  0.0126  0.0014  0.0000  0.0005  0.0371  0.0002  0.3006  0.0002  0.0605 </r>
        <r>  0.0000  0.0062  0.0023  0.0099  0.0000  0.0000  0.0000  0.0000  0.0000 </r>
        <r>  0.0000  0.0062  0.0023  0.0099  0.0000  0.0000  0.0000  0.0000  0.0000 </r>
        <r>  0.0000  0.0063  0.0023  0.0098  0.0000  0.0000  0.0000  0.0000  0.0000 </r>
        <r>  0.0000  0.0063  0.0023  0.0098  0.0000  0.0000  0.0000  0.0000  0.0000 </r>
       </set>
       <set comment="band 20">
        <r>  0.0138  0.0015  0.0000  0.0006  0.0380  0.0002  0.3070  0.0002  0.0527 </r>
        <r>  0.0138  0.0015  0.0000  0.0006  0.0380  0.0002  0.3070  0.0002  0.0528 </r>
        <r>  0.0001  0.0065  0.0021  0.0101  0.0000  0.0000  0.0000  0.0000  0.0000 </r>
        <r>  0.0001  0.0065  0.0021  0.0101  0.0000  0.0000  0.0000  0.0000  0.0000 </r>
        <r>  0.0001  0.0064  0.0021  0.0103  0.0000  0.0000  0.0000  0.0000  0.0000 </r>
        <r>  0.0001  0.0064  0.0021  0.0103  0.0000  0.0000  0.0000  0.0000  0.0000 </r>
       </set>
       <set comment="band 21">
        <r>  0.0031  0.0055  0.0003  0.0150  0.1831  0.0105  0.0268  0.0081  0.2636 </r>
        <r>  0.0013  0.0010  0.0015  0.0025  0.0356  0.0460  0.0060  0.0286  0.0502 </r>
        <r>  0.0004  0.0066  0.0071  0.0053  0.0000  0.0000  0.0000  0.0000  0.0000 </r>
        <r>  0.0026  0.0013  0.0334  0.0051  0.0000  0.0000  0.0000  0.0000  0.0000 </r>
        <r>  0.0021  0.0053  0.0307  0.0009  0.0000  0.0000  0.0000  0.0000  0.0000 </r>
        <r>  0.0007  0.0139  0.0052  0.0036  0.0000  0.0000  0.0000  0.0000  0.0000 </r>
       </set>
       <set comment="band 22">
        <r>  0.0016  0.0024  0.0016  0.0036  0.0668  0.1336  0.0088  0.0645  0.0769 </r>
        <r>  0.0002  0.0004  0.0008  0.0005  0.0051  0.1278  0.0004  0.0580  0.0045 </r>
        <r>  0.0006  0.0212  0.0001  0.0092  0.0000  0.0000  0.0000  0.0000  0.0000 </r>
        <r>  0.0021  0.0315  0.0123  0.0116  0.0000  0.0000  0.0000  0.0000  0.0000 </r>
        <r>  0.0007  0.0163  0.0101  0.0112  0.0000  0.0000  0.0000  0.0000  0.0000 </r>
        <r>  0.0014  0.0188  0.0014  0.0106  0.0000  0.0000  0.0000  0.0000  0.0000 </r>
       </set>
      </set>
      <set comment="kpoint 28">
       <set comment="band 1">
        <r>  0.0017  0.0163  0.0000  0.0126  0.0121  0.0000  0.0000  0.0000  0.0148 </r>
        <r>  0.0017  0.0162  0.0000  0.0126  0.0121  0.0000  0.0000  0.0000  0.0148 </r>
        <r>  0.1628  0.0001  0.0030  0.0000  0.0000  0.0000  0.0000  0.0000  0.0000 </r>
        <r>  0.1630  0.0001  0.0030  0.0000  0.0000  0.0000  0.0000  0.0000  0.0000 </r>
        <r>  0.1630  0.0001  0.0030  0.0000  0.0000  0.0000  0.0000  0.0000  0.0000 </r>
        <r>  0.1628  0.0001  0.0030  0.0000  0.0000  0.0000  0.0000  0.0000  0.0000 </r>
       </set>
       <set comment="band 2">
        <r>  0.0016  0.0163  0.0000  0.0127  0.0121  0.0001  0.0000  0.0000  0.0148 </r>
        <r>  0.0016  0.0163  0.0000  0.0127  0.0122  0.0001  0.0000  0.0000  0.0149 </r>
        <r>  0.1632  0.0001  0.0031  0.0000  0.0000  0.0000  0.0000  0.0000  0.0000 </r>
        <r>  0.1630  0.0001  0.0031  0.0000  0.0000  0.0000  0.0000  0.0000  0.0000 </r>
        <r>  0.1630  0.0001  0.0031  0.0000  0.0000  0.0000  0.0000  0.0000  0.0000 </r>
        <r>  0.1632  0.0001  0.0031  0.0000  0.0000  0.0000  0.0000  0.0000  0.0000 </r>
       </set>
       <set comment="band 3">
        <r>  0.0000  0.0000  0.0006  0.0000  0.0000  0.0336  0.0000  0.0252  0.0000 </r>
        <r>  0.0000  0.0000  0.0006  0.0000  0.0000  0.0336  0.0000  0.0252  0.0000 </r>
        <r>  0.1678  0.0000  0.0015  0.0000  0.0000  0.0000  0.0000  0.0000  0.0000 </r>
        <r>  0.1680  0.0000  0.0015  0.0000  0.0000  0.0000  0.0000  0.0000  0.0000 </r>
        <r>  0.1680  0.0000  0.0015  0.0000  0.0000  0.0000  0.0000  0.0000  0.0000 </r>
        <r>  0.1678  0.0000  0.0015  0.0000  0.0000  0.0000  0.0000  0.0000  0.0000 </r>
       </set>
       <set comment="band 4">
        <r>  0.0000  0.0000  0.0006  0.0000  0.0000  0.0338  0.0000  0.0253  0.0000 </r>
        <r>  0.0000  0.0000  0.0006  0.0000  0.0000  0.0338  0.0000  0.0253  0.0000 </r>
        <r>  0.1682  0.0000  0.0015  0.0000  0.0000  0.0000  0.0000  0.0000  0.0000 </r>
        <r>  0.1679  0.0000  0.0015  0.0000  0.0000  0.0000  0.0000  0.0000  0.0000 </r>
        <r>  0.1679  0.0000  0.0015  0.0000  0.0000  0.0000  0.0000  0.0000  0.0000 </r>
        <r>  0.1682  0.0000  0.0015  0.0000  0.0000  0.0000  0.0000  0.0000  0.0000 </r>
       </set>
       <set comment="band 5">
        <r>  0.0000  0.0000  0.0010  0.0000  0.0000  0.0828  0.0000  0.0995  0.0000 </r>
        <r>  0.0000  0.0000  0.0010  0.0000  0.0000  0.0828  0.0000  0.0994  0.0000 </r>
        <r>  0.0004  0.0411  0.0000  0.0363  0.0000  0.0000  0.0000  0.0000  0.0000 </r>
        <r>  0.0004  0.0411  0.0000  0.0363  0.0000  0.0000  0.0000  0.0000  0.0000 </r>
        <r>  0.0004  0.0427  0.0000  0.0347  0.0000  0.0000  0.0000  0.0000  0.0000 </r>
        <r>  0.0004  0.0427  0.0000  0.0347  0.0000  0.0000  0.0000  0.0000  0.0000 </r>
       </set>
       <set comment="band 6">
        <r>  0.0000  0.0000  0.0010  0.0000  0.0000  0.0845  0.0000  0.1002  0.0001 </r>
        <r>  0.0000  0.0000  0.0010  0.0000  0.0000  0.0845  0.0000  0.1003  0.0001 </r>
        <r>  0.0004  0.0430  0.0000  0.0343  0.0000  0.0000  0.0000  0.0000  0.0000 </r>
        <r>  0.0004  0.0430  0.0000  0.0343  0.0000  0.0000  0.0000  0.0000  0.0000 </r>
        <r>  0.0004  0.0408  0.0000  0.0365  0.0000  0.0000  0.0000  0.0000  0.0000 </r>
        <r>  0.0004  0.0409  0.0000  0.0365  0.0000  0.0000  0.0000  0.0000  0.0000 </r>
       </set>
       <set comment="band 7">
        <r>  0.0518  0.0047  0.0000  0.0111  0.0064  0.0004  0.0401  0.0002  0.0188 </r>
        <r>  0.0518  0.0047  0.0000  0.0111  0.0064  0.0004  0.0401  0.0002  0.0188 </r>
        <r>  0.0000  0.0567  0.0037  0.0249  0.0000  0.0000  0.0000  0.0000  0.0000 </r>
        <r>  0.0000  0.0567  0.0037  0.0249  0.0000  0.0000  0.0000  0.0000  0.0000 </r>
        <r>  0.0000  0.0618  0.0037  0.0197  0.0000  0.0000  0.0000  0.0000  0.0000 </r>
        <r>  0.0000  0.0618  0.0037  0.0197  0.0000  0.0000  0.0000  0.0000  0.0000 </r>
       </set>
       <set comment="band 8">
        <r>  0.0568  0.0047  0.0000  0.0096  0.0055  0.0004  0.0420  0.0001  0.0148 </r>
        <r>  0.0568  0.0047  0.0000  0.0096  0.0055  0.0004  0.0420  0.0001  0.0148 </r>
        <r>  0.0000  0.0632  0.0013  0.0214  0.0000  0.0000  0.0000  0.0000  0.0000 </r>
        <r>  0.0000  0.0632  0.0013  0.0214  0.0000  0.0000  0.0000  0.0000  0.0000 </r>
        <r>  0.0000  0.0588  0.0013  0.0258  0.0000  0.0000  0.0000  0.0000  0.0000 </r>
        <r>  0.0000  0.0588  0.0013  0.0258  0.0000  0.0000  0.0000  0.0000  0.0000 </r>
       </set>
       <set comment="band 9">
        <r>  0.0188  0.0088  0.0003  0.0213  0.0173  0.0002  0.0145  0.0002  0.0460 </r>
        <r>  0.0188  0.0088  0.0003  0.0212  0.0173  0.0002  0.0145  0.0002  0.0459 </r>
        <r>  0.0053  0.0178  0.0273  0.0402  0.0000  0.0000  0.0000  0.0000  0.0000 </r>
        <r>  0.0053  0.0178  0.0273  0.0402  0.0000  0.0000  0.0000  0.0000  0.0000 </r>
        <r>  0.0053  0.0118  0.0273  0.0462  0.0000  0.0000  0.0000  0.0000  0.0000 </r>
        <r>  0.0053  0.0118  0.0273  0.0462  0.0000  0.0000  0.0000  0.0000  0.0000 </r>
       </set>
       <set comment="band 10">
        <r>  0.0241  0.0104  0.0002  0.0199  0.0123  0.0001  0.0220  0.0002  0.0353 </r>
        <r>  0.0241  0.0104  0.0002  0.0199  0.0123  0.0001  0.0220  0.0002  0.0353 </r>
        <r>  0.0036  0.0155  0.0162  0.0546  0.0000  0.0000  0.0000  0.0000  0.0000 </r>
        <r>  0.0036  0.0154  0.0162  0.0546  0.0000  0.0000  0.0000  0.0000  0.0000 </r>
        <r>  0.0036  0.0198  0.0162  0.0502  0.0000  0.0000  0.0000  0.0000  0.0000 </r>
        <r>  0.0036  0.0198  0.0162  0.0502  0.0000  0.0000  0.0000  0.0000  0.0000 </r>
       </set>
       <set comment="band 11">
        <r>  0.0006  0.0296  0.0015  0.0099  0.0422  0.0006  0.0050  0.0003  0.0256 </r>
        <r>  0.0006  0.0296  0.0015  0.0099  0.0422  0.0006  0.0050  0.0003  0.0256 </r>
        <r>  0.0111  0.0183  0.0653  0.0070  0.0000  0.0000  0.0000  0.0000  0.0000 </r>
        <r>  0.0111  0.0183  0.0653  0.0070  0.0000  0.0000  0.0000  0.0000  0.0000 </r>
        <r>  0.0111  0.0034  0.0653  0.0219  0.0000  0.0000  0.0000  0.0000  0.0000 </r>
        <r>  0.0111  0.0034  0.0653  0.0219  0.0000  0.0000  0.0000  0.0000  0.0000 </r>
       </set>
       <set comment="band 12">
        <r>  0.0002  0.0310  0.0023  0.0104  0.0378  0.0016  0.0111  0.0008  0.0201 </r>
        <r>  0.0002  0.0310  0.0023  0.0104  0.0378  0.0016  0.0111  0.0008  0.0201 </r>
        <r>  0.0093  0.0025  0.0552  0.0331  0.0000  0.0000  0.0000  0.0000  0.0000 </r>
        <r>  0.0093  0.0025  0.0552  0.0331  0.0000  0.0000  0.0000  0.0000  0.0000 </r>
        <r>  0.0093  0.0229  0.0552  0.0126  0.0000  0.0000  0.0000  0.0000  0.0000 </r>
        <r>  0.0093  0.0229  0.0552  0.0126  0.0000  0.0000  0.0000  0.0000  0.0000 </r>
       </set>
       <set comment="band 13">
        <r>  0.0000  0.0017  0.0402  0.0007  0.0038  0.0285  0.0008  0.0130  0.0035 </r>
        <r>  0.0000  0.0017  0.0402  0.0007  0.0038  0.0285  0.0008  0.0130  0.0035 </r>
        <r>  0.0025  0.0490  0.0200  0.0390  0.0000  0.0000  0.0000  0.0000  0.0000 </r>
        <r>  0.0025  0.0490  0.0200  0.0390  0.0000  0.0000  0.0000  0.0000  0.0000 </r>
        <r>  0.0025  0.0366  0.0200  0.0513  0.0000  0.0000  0.0000  0.0000  0.0000 </r>
        <r>  0.0025  0.0366  0.0200  0.0513  0.0000  0.0000  0.0000  0.0000  0.0000 </r>
       </set>
       <set comment="band 14">
        <r>  0.0001  0.0009  0.0491  0.0004  0.0025  0.0185  0.0002  0.0071  0.0024 </r>
        <r>  0.0001  0.0009  0.0492  0.0004  0.0025  0.0185  0.0002  0.0071  0.0024 </r>
        <r>  0.0016  0.0465  0.0086  0.0571  0.0000  0.0000  0.0000  0.0000  0.0000 </r>
        <r>  0.0016  0.0465  0.0086  0.0571  0.0000  0.0000  0.0000  0.0000  0.0000 </r>
        <r>  0.0016  0.0545  0.0086  0.0491  0.0000  0.0000  0.0000  0.0000  0.0000 </r>
        <r>  0.0016  0.0545  0.0086  0.0491  0.0000  0.0000  0.0000  0.0000  0.0000 </r>
       </set>
       <set comment="band 15">
        <r>  0.0005  0.0000  0.0055  0.0000  0.0000  0.0665  0.0004  0.0632  0.0000 </r>
        <r>  0.0005  0.0000  0.0055  0.0000  0.0000  0.0665  0.0004  0.0632  0.0000 </r>
        <r>  0.0093  0.0039  0.0954  0.0048  0.0000  0.0000  0.0000  0.0000  0.0000 </r>
        <r>  0.0093  0.0039  0.0954  0.0048  0.0000  0.0000  0.0000  0.0000  0.0000 </r>
        <r>  0.0093  0.0037  0.0954  0.0050  0.0000  0.0000  0.0000  0.0000  0.0000 </r>
        <r>  0.0093  0.0037  0.0954  0.0050  0.0000  0.0000  0.0000  0.0000  0.0000 </r>
       </set>
       <set comment="band 16">
        <r>  0.0004  0.0000  0.0141  0.0000  0.0000  0.0542  0.0003  0.0546  0.0000 </r>
        <r>  0.0004  0.0000  0.0141  0.0000  0.0000  0.0542  0.0003  0.0546  0.0000 </r>
        <r>  0.0084  0.0107  0.0855  0.0126  0.0000  0.0000  0.0000  0.0000  0.0000 </r>
        <r>  0.0084  0.0107  0.0855  0.0126  0.0000  0.0000  0.0000  0.0000  0.0000 </r>
        <r>  0.0084  0.0111  0.0855  0.0123  0.0000  0.0000  0.0000  0.0000  0.0000 </r>
        <r>  0.0084  0.0111  0.0855  0.0123  0.0000  0.0000  0.0000  0.0000  0.0000 </r>
       </set>
       <set comment="band 17">
        <r>  0.0021  0.0012  0.0000  0.0006  0.1595  0.0000  0.0248  0.0001  0.1618 </r>
        <r>  0.0021  0.0012  0.0000  0.0006  0.1595  0.0000  0.0248  0.0001  0.1618 </r>
        <r>  0.0000  0.0130  0.0000  0.0179  0.0000  0.0000  0.0000  0.0000  0.0000 </r>
        <r>  0.0000  0.0130  0.0000  0.0179  0.0000  0.0000  0.0000  0.0000  0.0000 </r>
        <r>  0.0000  0.0128  0.0000  0.0181  0.0000  0.0000  0.0000  0.0000  0.0000 </r>
        <r>  0.0000  0.0128  0.0000  0.0181  0.0000  0.0000  0.0000  0.0000  0.0000 </r>
       </set>
       <set comment="band 18">
        <r>  0.0021  0.0010  0.0000  0.0004  0.1611  0.0001  0.0259  0.0001  0.1601 </r>
        <r>  0.0021  0.0010  0.0000  0.0004  0.1611  0.0001  0.0259  0.0001  0.1601 </r>
        <r>  0.0000  0.0135  0.0000  0.0190  0.0000  0.0000  0.0000  0.0000  0.0000 </r>
        <r>  0.0000  0.0135  0.0000  0.0190  0.0000  0.0000  0.0000  0.0000  0.0000 </r>
        <r>  0.0000  0.0136  0.0000  0.0188  0.0000  0.0000  0.0000  0.0000  0.0000 </r>
        <r>  0.0000  0.0136  0.0000  0.0188  0.0000  0.0000  0.0000  0.0000  0.0000 </r>
       </set>
       <set comment="band 19">
        <r>  0.0187  0.0013  0.0000  0.0005  0.0129  0.0001  0.3565  0.0002  0.0153 </r>
        <r>  0.0187  0.0013  0.0000  0.0005  0.0129  0.0001  0.3563  0.0002  0.0153 </r>
        <r>  0.0000  0.0103  0.0019  0.0063  0.0000  0.0000  0.0000  0.0000  0.0000 </r>
        <r>  0.0000  0.0103  0.0019  0.0063  0.0000  0.0000  0.0000  0.0000  0.0000 </r>
        <r>  0.0000  0.0098  0.0019  0.0069  0.0000  0.0000  0.0000  0.0000  0.0000 </r>
        <r>  0.0000  0.0097  0.0019  0.0069  0.0000  0.0000  0.0000  0.0000  0.0000 </r>
       </set>
       <set comment="band 20">
        <r>  0.0200  0.0013  0.0000  0.0005  0.0155  0.0001  0.3540  0.0002  0.0149 </r>
        <r>  0.0200  0.0013  0.0000  0.0005  0.0155  0.0001  0.3541  0.0002  0.0149 </r>
        <r>  0.0000  0.0101  0.0017  0.0070  0.0000  0.0000  0.0000  0.0000  0.0000 </r>
        <r>  0.0000  0.0100  0.0017  0.0070  0.0000  0.0000  0.0000  0.0000  0.0000 </r>
        <r>  0.0000  0.0107  0.0017  0.0064  0.0000  0.0000  0.0000  0.0000  0.0000 </r>
        <r>  0.0000  0.0107  0.0017  0.0064  0.0000  0.0000  0.0000  0.0000  0.0000 </r>
       </set>
       <set comment="band 21">
        <r>  0.0001  0.0004  0.0003  0.0002  0.0028  0.0819  0.0001  0.1314  0.0008 </r>
        <r>  0.0001  0.0004  0.0004  0.0003  0.0055  0.1064  0.0002  0.1662  0.0041 </r>
        <r>  0.0007  0.0166  0.0014  0.0216  0.0000  0.0000  0.0000  0.0000  0.0000 </r>
        <r>  0.0005  0.0127  0.0003  0.0162  0.0000  0.0000  0.0000  0.0000  0.0000 </r>
        <r>  0.0005  0.0118  0.0004  0.0170  0.0000  0.0000  0.0000  0.0000  0.0000 </r>
        <r>  0.0005  0.0150  0.0006  0.0216  0.0000  0.0000  0.0000  0.0000  0.0000 </r>
       </set>
       <set comment="band 22">
        <r>  0.0016  0.0041  0.0004  0.0019  0.0733  0.0607  0.0009  0.1087  0.0512 </r>
        <r>  0.0016  0.0036  0.0004  0.0023  0.0694  0.0552  0.0009  0.0946  0.0531 </r>
        <r>  0.0007  0.0076  0.0095  0.0123  0.0000  0.0000  0.0000  0.0000  0.0000 </r>
        <r>  0.0011  0.0098  0.0109  0.0143  0.0000  0.0000  0.0000  0.0000  0.0000 </r>
        <r>  0.0015  0.0119  0.0123  0.0139  0.0000  0.0000  0.0000  0.0000  0.0000 </r>
        <r>  0.0018  0.0109  0.0133  0.0135  0.0000  0.0000  0.0000  0.0000  0.0000 </r>
       </set>
      </set>
     </set>
    </set>
   </array>
  </projected>
 </calculation>
 <structure name="finalpos" >
  <crystal>
   <varray name="basis" >
    <v>       3.19227375       0.00000000       0.00000000 </v>
    <v>      -1.59613687       2.76459035       0.00000000 </v>
    <v>       0.00000000       0.00000000      13.28154876 </v>
   </varray>
   <i name="volume">    117.21403994 </i>
   <varray name="rec_basis" >
    <v>       0.31325634       0.18085862       0.00000000 </v>
    <v>      -0.00000000       0.36171724       0.00000000 </v>
    <v>       0.00000000       0.00000000       0.07529242 </v>
   </varray>
  </crystal>
  <varray name="positions" >
   <v>       0.33333300       0.66666700       0.25000000 </v>
   <v>       0.66666700       0.33333300       0.75000000 </v>
   <v>       0.33333300       0.66666700       0.86743573 </v>
   <v>       0.66666700       0.33333300       0.13256427 </v>
   <v>       0.66666600       0.33333300       0.36743573 </v>
   <v>       0.33333400       0.66666700       0.63256427 </v>
  </varray>
 </structure>
</modeling>
