<?xml version="1.0" encoding="ISO-8859-1"?>
<modeling>
 <generator>
  <i name="program" type="string">vasp </i>
  <i name="version" type="string">5.4.4.18Apr17-6-g9f103f2a35  </i>
  <i name="subversion" type="string">(build Jun 30 2017 11:15:00) complex            parallel </i>
  <i name="platform" type="string">STALLO_VASP_5.4.4 </i>
  <i name="date" type="string">2019 11 08 </i>
  <i name="time" type="string">14:59:44 </i>
 </generator>
 <incar>
  <i type="string" name="PREC">accurate  ! low/normal/accurate</i>
  <i type="string" name="ALGO"> Fast      ! Algorithm for electronic re</i>
  <i type="int" name="ISPIN">     1</i>
  <i type="int" name="NELMIN">     4</i>
  <i name="EDIFF">      0.00000100</i>
  <i type="int" name="NSW">     0</i>
  <i name="ENCUT">    450.00000000</i>
  <i type="logical" name="LREAL"> F  </i>
  <i type="int" name="ISMEAR">    -5</i>
  <i name="SIGMA">      0.20000000</i>
  <i type="logical" name="LWAVE"> F  </i>
  <v type="int" name="KPOINT_BSE">    -1     0     0     0</v>
 </incar>
 <structure name="primitive_cell" >
  <crystal>
   <varray name="basis" >
    <v>       3.18985683       0.00000000       0.00000000 </v>
    <v>      -1.59492842       2.76249705       0.00000000 </v>
    <v>       0.00000000       0.00000000      30.79397887 </v>
   </varray>
   <i name="volume">    271.35562051 </i>
   <varray name="rec_basis" >
    <v>       0.31349369       0.18099567       0.00000000 </v>
    <v>       0.00000000       0.36199134       0.00000000 </v>
    <v>       0.00000000       0.00000000       0.03247388 </v>
   </varray>
  </crystal>
  <varray name="positions" >
   <v>       0.33333300      -0.33333300       0.12046214 </v>
   <v>      -0.33333400       0.33333300       0.17108384 </v>
   <v>      -0.33333300       0.33333300       0.06984045 </v>
  </varray>
 </structure>
 <varray name="primitive_index" >
  <v type="int" >        1 </v>
  <v type="int" >        3 </v>
  <v type="int" >        2 </v>
 </varray>
 <kpoints>
  <generation param="Gamma">
   <v type="int" name="divisions">      10       10        1 </v>
   <v name="usershift">      0.00000000       0.00000000       0.00000000 </v>
   <v name="genvec1">      0.10000000       0.00000000       0.00000000 </v>
   <v name="genvec2">      0.00000000       0.10000000       0.00000000 </v>
   <v name="genvec3">      0.00000000       0.00000000       1.00000000 </v>
   <v name="shift">      0.00000000       0.00000000       0.00000000 </v>
  </generation>
  <varray name="kpointlist" >
   <v>       0.00000000       0.00000000       0.00000000 </v>
   <v>       0.10000000      -0.00000000       0.00000000 </v>
   <v>       0.20000000      -0.00000000       0.00000000 </v>
   <v>       0.30000000      -0.00000000       0.00000000 </v>
   <v>       0.40000000      -0.00000000       0.00000000 </v>
   <v>       0.50000000      -0.00000000       0.00000000 </v>
   <v>       0.10000000       0.10000000       0.00000000 </v>
   <v>       0.20000000       0.10000000       0.00000000 </v>
   <v>       0.30000000       0.10000000       0.00000000 </v>
   <v>       0.40000000       0.10000000       0.00000000 </v>
   <v>       0.20000000       0.20000000       0.00000000 </v>
   <v>       0.30000000       0.20000000       0.00000000 </v>
   <v>       0.40000000       0.20000000       0.00000000 </v>
   <v>       0.30000000       0.30000000       0.00000000 </v>
  </varray>
  <varray name="weights" >
   <v>       0.01000000 </v>
   <v>       0.06000000 </v>
   <v>       0.06000000 </v>
   <v>       0.06000000 </v>
   <v>       0.06000000 </v>
   <v>       0.03000000 </v>
   <v>       0.06000000 </v>
   <v>       0.12000000 </v>
   <v>       0.12000000 </v>
   <v>       0.12000000 </v>
   <v>       0.06000000 </v>
   <v>       0.12000000 </v>
   <v>       0.06000000 </v>
   <v>       0.06000000 </v>
  </varray>
  <varray name="tetrahedronlist"  type="int" >
   <v type="int" >       12        2        2        2        7 </v>
   <v type="int" >       12        1        2        2        2 </v>
   <v type="int" >        6        1        1        2        2 </v>
   <v type="int" >        6        2        2        7        7 </v>
   <v type="int" >       12        3        7        7        8 </v>
   <v type="int" >       12        2        3        7        7 </v>
   <v type="int" >       12        2        2        3        7 </v>
   <v type="int" >       12        3        7        8        8 </v>
   <v type="int" >       12        3        3        7        8 </v>
   <v type="int" >       12        2        3        3        7 </v>
   <v type="int" >       12        4        8        8        9 </v>
   <v type="int" >       12        3        4        8        8 </v>
   <v type="int" >       12        3        3        4        8 </v>
   <v type="int" >       12        4        8        9        9 </v>
   <v type="int" >       12        4        4        8        9 </v>
   <v type="int" >       12        3        4        4        8 </v>
   <v type="int" >       12        5        9        9       10 </v>
   <v type="int" >       12        4        5        9        9 </v>
   <v type="int" >       12        4        4        5        9 </v>
   <v type="int" >       12        5        9       10       10 </v>
   <v type="int" >       12        5        5        9       10 </v>
   <v type="int" >       12        4        5        5        9 </v>
   <v type="int" >       12        6       10       10       10 </v>
   <v type="int" >       12        5        6       10       10 </v>
   <v type="int" >       12        5        5        6       10 </v>
   <v type="int" >        6        6        6       10       10 </v>
   <v type="int" >       12        5        6        6       10 </v>
   <v type="int" >       12        8        8        8       11 </v>
   <v type="int" >       12        7        8        8        8 </v>
   <v type="int" >        6        7        7        8        8 </v>
   <v type="int" >        6        8        8       11       11 </v>
   <v type="int" >       12        9       11       11       12 </v>
   <v type="int" >       12        8        9       11       11 </v>
   <v type="int" >       12        8        8        9       11 </v>
   <v type="int" >       12        9       11       12       12 </v>
   <v type="int" >       12        9        9       11       12 </v>
   <v type="int" >       12        8        9        9       11 </v>
   <v type="int" >       12       10       12       12       13 </v>
   <v type="int" >       12        9       10       12       12 </v>
   <v type="int" >       12        9        9       10       12 </v>
   <v type="int" >       12       10       12       13       13 </v>
   <v type="int" >       12       10       10       12       13 </v>
   <v type="int" >       12        9       10       10       12 </v>
   <v type="int" >        6       10       10       13       13 </v>
   <v type="int" >       12       10       10       10       13 </v>
   <v type="int" >       12       12       12       12       14 </v>
   <v type="int" >       12       11       12       12       12 </v>
   <v type="int" >        6       11       11       12       12 </v>
   <v type="int" >        6       12       12       14       14 </v>
   <v type="int" >       12       13       14       14       14 </v>
   <v type="int" >       12       12       13       14       14 </v>
   <v type="int" >       12       12       12       13       14 </v>
   <v type="int" >        6       13       13       14       14 </v>
   <v type="int" >       12       12       13       13       14 </v>
   <v type="int" >        6       14       14       14       14 </v>
  </varray>
  <i name="volumeweight">      0.00166667 </i>
 </kpoints>
 <parameters>
  <separator name="general" >
   <i type="string" name="SYSTEM">unknown system</i>
   <i type="logical" name="LCOMPAT"> F  </i>
  </separator>
  <separator name="electronic" >
   <i type="string" name="PREC">accura</i>
   <i name="ENMAX">    450.00000000</i>
   <i name="ENAUG">    345.27800000</i>
   <i name="EDIFF">      0.00000100</i>
   <i type="int" name="IALGO">    68</i>
   <i type="int" name="IWAVPR">    10</i>
   <i type="int" name="NBANDS">    14</i>
   <i name="NELECT">     18.00000000</i>
   <i type="int" name="TURBO">     0</i>
   <i type="int" name="IRESTART">     0</i>
   <i type="int" name="NREBOOT">     0</i>
   <i type="int" name="NMIN">     0</i>
   <i name="EREF">      0.00000000</i>
   <separator name="electronic smearing" >
    <i type="int" name="ISMEAR">    -5</i>
    <i name="SIGMA">      0.20000000</i>
    <i name="KSPACING">      0.50000000</i>
    <i type="logical" name="KGAMMA"> T  </i>
   </separator>
   <separator name="electronic projectors" >
    <i type="logical" name="LREAL"> F  </i>
    <v name="ROPT">      0.00000000      0.00000000</v>
    <i type="int" name="LMAXPAW">  -100</i>
    <i type="int" name="LMAXMIX">     2</i>
    <i type="logical" name="NLSPLINE"> F  </i>
   </separator>
   <separator name="electronic startup" >
    <i type="int" name="ISTART">     0</i>
    <i type="int" name="ICHARG">     2</i>
    <i type="int" name="INIWAV">     1</i>
   </separator>
   <separator name="electronic spin" >
    <i type="int" name="ISPIN">     1</i>
    <i type="logical" name="LNONCOLLINEAR"> F  </i>
    <v name="MAGMOM">      1.00000000      1.00000000      1.00000000</v>
    <i name="NUPDOWN">     -1.00000000</i>
    <i type="logical" name="LSORBIT"> F  </i>
    <v name="SAXIS">      0.00000000      0.00000000      1.00000000</v>
    <i type="logical" name="LSPIRAL"> F  </i>
    <v name="QSPIRAL">      0.00000000      0.00000000      0.00000000</v>
    <i type="logical" name="LZEROZ"> F  </i>
   </separator>
   <separator name="electronic exchange-correlation" >
    <i type="logical" name="LASPH"> F  </i>
    <i type="logical" name="LMETAGGA"> F  </i>
   </separator>
   <separator name="electronic convergence" >
    <i type="int" name="NELM">    60</i>
    <i type="int" name="NELMDL">    -5</i>
    <i type="int" name="NELMIN">     4</i>
    <i name="ENINI">    450.00000000</i>
    <separator name="electronic convergence detail" >
     <i type="logical" name="LDIAG"> T  </i>
     <i type="logical" name="LSUBROT"> F  </i>
     <i name="WEIMIN">      0.00000000</i>
     <i name="EBREAK">      0.00000002</i>
     <i name="DEPER">      0.30000000</i>
     <i type="int" name="NRMM">     4</i>
     <i name="TIME">      0.40000000</i>
    </separator>
   </separator>
   <separator name="electronic mixer" >
    <i name="AMIX">      0.40000000</i>
    <i name="BMIX">      1.00000000</i>
    <i name="AMIN">      0.10000000</i>
    <i name="AMIX_MAG">      1.60000000</i>
    <i name="BMIX_MAG">      1.00000000</i>
    <separator name="electronic mixer details" >
     <i type="int" name="IMIX">     4</i>
     <i type="logical" name="MIXFIRST"> F  </i>
     <i type="int" name="MAXMIX">   -45</i>
     <i name="WC">    100.00000000</i>
     <i type="int" name="INIMIX">     1</i>
     <i type="int" name="MIXPRE">     1</i>
     <i type="int" name="MREMOVE">     5</i>
    </separator>
   </separator>
   <separator name="electronic dipolcorrection" >
    <i type="logical" name="LDIPOL"> F  </i>
    <i type="logical" name="LMONO"> F  </i>
    <i type="int" name="IDIPOL">     0</i>
    <i name="EPSILON">      1.00000000</i>
    <v name="DIPOL">   -100.00000000   -100.00000000   -100.00000000</v>
    <i name="EFIELD">      0.00000000</i>
   </separator>
  </separator>
  <separator name="grids" >
   <i type="int" name="NGX">    24</i>
   <i type="int" name="NGY">    24</i>
   <i type="int" name="NGZ">   216</i>
   <i type="int" name="NGXF">    48</i>
   <i type="int" name="NGYF">    48</i>
   <i type="int" name="NGZF">   432</i>
   <i type="logical" name="ADDGRID"> F  </i>
  </separator>
  <separator name="ionic" >
   <i type="int" name="NSW">     0</i>
   <i type="int" name="IBRION">    -1</i>
   <i type="int" name="MDALGO">     0</i>
   <i type="int" name="ISIF">     2</i>
   <i name="PSTRESS">      0.00000000</i>
   <i name="EDIFFG">      0.00001000</i>
   <i type="int" name="NFREE">     0</i>
   <i name="POTIM">      0.50000000</i>
   <i name="SMASS">     -3.00000000</i>
   <i name="SCALEE">      1.00000000</i>
  </separator>
  <separator name="ionic md" >
   <i name="TEBEG">      0.00010000</i>
   <i name="TEEND">      0.00010000</i>
   <i type="int" name="NBLOCK">     1</i>
   <i type="int" name="KBLOCK">     1</i>
   <i type="int" name="NPACO">   256</i>
   <i name="APACO">     16.00000000</i>
  </separator>
  <separator name="symmetry" >
   <i type="int" name="ISYM">     2</i>
   <i name="SYMPREC">      0.00001000</i>
  </separator>
  <separator name="dos" >
   <i type="int" name="LORBIT">     0</i>
   <v name="RWIGS">     -1.00000000     -1.00000000</v>
   <i type="int" name="NEDOS">   301</i>
   <i name="EMIN">     10.00000000</i>
   <i name="EMAX">    -10.00000000</i>
   <i name="EFERMI">      0.00000000</i>
  </separator>
  <separator name="writing" >
   <i type="int" name="NWRITE">     2</i>
   <i type="logical" name="LWAVE"> F  </i>
   <i type="logical" name="LDOWNSAMPLE"> F  </i>
   <i type="logical" name="LCHARG"> T  </i>
   <i type="logical" name="LPARD"> F  </i>
   <i type="logical" name="LVTOT"> F  </i>
   <i type="logical" name="LVHAR"> F  </i>
   <i type="logical" name="LELF"> F  </i>
   <i type="logical" name="LOPTICS"> F  </i>
   <v name="STM">      0.00000000      0.00000000      0.00000000      0.00000000      0.00000000      0.00000000      0.00000000</v>
  </separator>
  <separator name="performance" >
   <i type="int" name="NPAR">     2</i>
   <i type="int" name="NSIM">     4</i>
   <i type="int" name="NBLK">    -1</i>
   <i type="logical" name="LPLANE"> T  </i>
   <i type="logical" name="LSCALAPACK"> T  </i>
   <i type="logical" name="LSCAAWARE"> F  </i>
   <i type="logical" name="LSCALU"> F  </i>
   <i type="logical" name="LASYNC"> F  </i>
   <i type="logical" name="LORBITALREAL"> F  </i>
  </separator>
  <separator name="miscellaneous" >
   <i type="int" name="IDIOT">     3</i>
   <i type="int" name="ISPECIAL">     0</i>
   <i type="logical" name="LMUSIC"> F  </i>
   <v name="POMASS">     95.94000000     32.06600000</v>
   <v name="DARWINR">      0.00000000      0.00000000</v>
   <v name="DARWINV">      1.00000000      1.00000000</v>
   <i type="logical" name="LCORR"> T  </i>
  </separator>
  <i type="logical" name="GGA_COMPAT"> T  </i>
  <i type="logical" name="LBERRY"> F  </i>
  <i type="int" name="ICORELEVEL">     0</i>
  <i type="logical" name="LDAU"> F  </i>
  <i type="int" name="I_CONSTRAINED_M">     0</i>
  <separator name="electronic exchange-correlation" >
   <i type="string" name="GGA">--</i>
   <i type="int" name="VOSKOWN">     0</i>
   <i type="logical" name="LHFCALC"> F  </i>
   <i type="string" name="PRECFOCK"></i>
   <i type="logical" name="LSYMGRAD"> F  </i>
   <i type="logical" name="LHFONE"> F  </i>
   <i type="logical" name="LRHFCALC"> F  </i>
   <i type="logical" name="LTHOMAS"> F  </i>
   <i type="logical" name="LMODELHF"> F  </i>
   <i name="ENCUT4O">     -1.00000000</i>
   <i type="int" name="EXXOEP">     0</i>
   <i type="int" name="FOURORBIT">     0</i>
   <i name="AEXX">      0.00000000</i>
   <i name="HFALPHA">      0.00000000</i>
   <i name="MCALPHA">      0.00000000</i>
   <i name="ALDAX">      1.00000000</i>
   <i name="AGGAX">      1.00000000</i>
   <i name="ALDAC">      1.00000000</i>
   <i name="AGGAC">      1.00000000</i>
   <i type="int" name="NKREDX">     1</i>
   <i type="int" name="NKREDY">     1</i>
   <i type="int" name="NKREDZ">     1</i>
   <i type="logical" name="SHIFTRED"> F  </i>
   <i type="logical" name="ODDONLY"> F  </i>
   <i type="logical" name="EVENONLY"> F  </i>
   <i type="int" name="LMAXFOCK">     0</i>
   <i type="int" name="NMAXFOCKAE">     0</i>
   <i type="logical" name="LFOCKAEDFT"> F  </i>
   <i name="HFSCREEN">      0.00000000</i>
   <i name="HFSCREENC">      0.00000000</i>
   <i type="int" name="NBANDSGWLOW">     0</i>
  </separator>
  <separator name="vdW DFT" >
   <i type="logical" name="LUSE_VDW"> F  </i>
   <i name="Zab_VDW">     -0.84910000</i>
   <i name="PARAM1">      0.12340000</i>
   <i name="PARAM2">      1.00000000</i>
   <i name="PARAM3">      0.00000000</i>
  </separator>
  <separator name="model GW" >
   <i type="int" name="MODEL_GW">     0</i>
   <i name="MODEL_EPS0">     54.27112410</i>
   <i name="MODEL_ALPHA">      1.00000000</i>
  </separator>
  <separator name="linear response parameters" >
   <i type="logical" name="LEPSILON"> F  </i>
   <i type="logical" name="LRPA"> F  </i>
   <i type="logical" name="LNABLA"> F  </i>
   <i type="logical" name="LVEL"> F  </i>
   <i type="int" name="KINTER">     0</i>
   <i name="CSHIFT">      0.10000000</i>
   <i name="OMEGAMAX">     -1.00000000</i>
   <i name="DEG_THRESHOLD">      0.00200000</i>
   <i name="RTIME">     -0.10000000</i>
   <i name="WPLASMAI">      0.00000000</i>
   <v name="DFIELD">      0.00000000      0.00000000      0.00000000</v>
   <v name="WPLASMA">      0.00000000      0.00000000      0.00000000      0.00000000      0.00000000      0.00000000      0.00000000      0.00000000      0.00000000</v>
  </separator>
  <separator name="orbital magnetization" >
   <i type="logical" name="NUCIND"> F  </i>
   <v name="MAGPOS">      0.00000000      0.00000000      0.00000000</v>
   <i type="logical" name="LNICSALL"> T  </i>
   <i type="logical" name="ORBITALMAG"> F  </i>
   <i type="logical" name="LMAGBLOCH"> F  </i>
   <i type="logical" name="LCHIMAG"> F  </i>
   <i type="logical" name="LGAUGE"> T  </i>
   <i type="int" name="MAGATOM">     0</i>
   <v name="MAGDIPOL">      0.00000000      0.00000000      0.00000000</v>
   <v name="AVECCONST">      0.00000000      0.00000000      0.00000000</v>
  </separator>
  <separator name="response functions" >
   <i type="logical" name="LADDER"> F  </i>
   <i type="logical" name="LRPAFORCE"> F  </i>
   <i type="logical" name="LFXC"> F  </i>
   <i type="logical" name="LHARTREE"> T  </i>
   <i type="int" name="IBSE">     0</i>
   <v type="int" name="KPOINT">    -1     0     0     0</v>
   <i type="logical" name="LTCTE"> F  </i>
   <i type="logical" name="LTETE"> F  </i>
   <i type="logical" name="LTRIPLET"> F  </i>
   <i type="logical" name="LFXCEPS"> F  </i>
   <i type="logical" name="LFXHEG"> F  </i>
   <i type="int" name="NATURALO">     2</i>
   <i type="logical" name="L2ORDER"> F  </i>
   <i type="logical" name="LMP2LT"> F  </i>
   <i type="logical" name="LUSEW"> F  </i>
   <i name="ENCUTGW">     -2.00000000</i>
   <i name="ENCUTGWSOFT">     -2.00000000</i>
   <i name="ENCUTLF">     -1.00000000</i>
   <i type="int" name="LMAXMP2">    -1</i>
   <i name="SCISSOR">      0.00000000</i>
   <i type="int" name="NOMEGA">     0</i>
   <i type="int" name="NOMEGAR">     0</i>
   <i type="int" name="NBANDSGW">    -1</i>
   <i type="int" name="NBANDSO">    -1</i>
   <i type="int" name="NBANDSV">    -1</i>
   <i type="int" name="NELM">     1</i>
   <i type="int" name="NELMHF">     1</i>
   <i type="int" name="DIM">     3</i>
   <i type="int" name="ANTIRES">     0</i>
   <i name="OMEGAMAX">    -30.00000000</i>
   <i name="OMEGAMIN">    -30.00000000</i>
   <i name="OMEGATL">   -200.00000000</i>
   <i type="int" name="OMEGAGRID">   140</i>
   <i name="CSHIFT">     -0.10000000</i>
   <i type="logical" name="SELFENERGY"> F  </i>
   <i type="logical" name="LSPECTRAL"> F  </i>
   <i type="logical" name="LSPECTRALGW"> F  </i>
   <i type="logical" name="LSINGLES"> F  </i>
   <i type="logical" name="LFERMIGW"> F  </i>
   <i type="logical" name="ODDONLYGW"> F  </i>
   <i type="logical" name="EVENONLYGW"> F  </i>
   <i type="int" name="NKREDLFX">     1</i>
   <i type="int" name="NKREDLFY">     1</i>
   <i type="int" name="NKREDLFZ">     1</i>
   <i type="int" name="MAXMEM">  2800</i>
   <i type="int" name="TELESCOPE">     0</i>
   <i type="int" name="TAUPAR">     1</i>
   <i type="int" name="OMEGAPAR">    -1</i>
   <i name="LAMBDA">      1.00000000</i>
  </separator>
  <separator name="External order field" >
   <i name="OFIELD_KAPPA">      0.00000000</i>
   <v name="OFIELD_K">      0.00000000      0.00000000      0.00000000</v>
   <i name="OFIELD_Q6_NEAR">      0.00000000</i>
   <i name="OFIELD_Q6_FAR">      0.00000000</i>
   <i name="OFIELD_A">      0.00000000</i>
  </separator>
 </parameters>
 <atominfo>
  <atoms>       3 </atoms>
  <types>       2 </types>
  <array name="atoms" >
   <dimension dim="1">ion</dimension>
   <field type="string">element</field>
   <field type="int">atomtype</field>
   <set>
    <rc><c>Mo</c><c>   1</c></rc>
    <rc><c>S </c><c>   2</c></rc>
    <rc><c>S </c><c>   2</c></rc>
   </set>
  </array>
  <array name="atomtypes" >
   <dimension dim="1">type</dimension>
   <field type="int">atomspertype</field>
   <field type="string">element</field>
   <field>mass</field>
   <field>valence</field>
   <field type="string">pseudopotential</field>
   <set>
    <rc><c>   1</c><c>Mo</c><c>     95.94000000</c><c>      6.00000000</c><c> PAW_PBE Mo 08Apr2002                   </c></rc>
    <rc><c>   2</c><c>S </c><c>     32.06600000</c><c>      6.00000000</c><c>  PAW_PBE S 17Jan2003                   </c></rc>
   </set>
  </array>
 </atominfo>
 <structure name="initialpos" >
  <crystal>
   <varray name="basis" >
    <v>       3.18985683       0.00000000       0.00000000 </v>
    <v>      -1.59492842       2.76249705       0.00000000 </v>
    <v>       0.00000000       0.00000000      30.79397887 </v>
   </varray>
   <i name="volume">    271.35562051 </i>
   <varray name="rec_basis" >
    <v>       0.31349369       0.18099567       0.00000000 </v>
    <v>       0.00000000       0.36199134       0.00000000 </v>
    <v>       0.00000000       0.00000000       0.03247388 </v>
   </varray>
  </crystal>
  <varray name="positions" >
   <v>       0.33333300       0.66666700       0.12046214 </v>
   <v>       0.66666700       0.33333300       0.06984045 </v>
   <v>       0.66666600       0.33333300       0.17108384 </v>
  </varray>
 </structure>
 <calculation>
  <scstep>
   <time name="dav">    0.76    0.76</time>
   <time name="total">    0.92    0.94</time>
   <energy>
    <i name="alphaZ">     10.92610231 </i>
    <i name="ewald">   5354.53473861 </i>
    <i name="hartreedc">  -6027.92195658 </i>
    <i name="XCdc">    -36.28686144 </i>
    <i name="pawpsdc">    406.88651198 </i>
    <i name="pawaedc">   -329.34073203 </i>
    <i name="eentropy">      0.00000000 </i>
    <i name="bandstr">    -12.74586182 </i>
    <i name="atom">    771.15511399 </i>
    <i name="e_fr_energy">    137.20705502 </i>
    <i name="e_wo_entrp">    137.20705502 </i>
    <i name="e_0_energy">    137.20705502 </i>
   </energy>
  </scstep>
  <scstep>
   <time name="dav">    1.17    1.18</time>
   <time name="total">    1.17    1.18</time>
   <energy>
    <i name="e_fr_energy">     -6.02078369 </i>
    <i name="e_wo_entrp">     -6.02078369 </i>
    <i name="e_0_energy">     -6.02078369 </i>
   </energy>
  </scstep>
  <scstep>
   <time name="dav">    0.92    0.93</time>
   <time name="total">    0.92    0.93</time>
   <energy>
    <i name="e_fr_energy">    -23.04551188 </i>
    <i name="e_wo_entrp">    -23.04551188 </i>
    <i name="e_0_energy">    -23.04551188 </i>
   </energy>
  </scstep>
  <scstep>
   <time name="dav">    0.95    0.95</time>
   <time name="total">    0.95    0.95</time>
   <energy>
    <i name="e_fr_energy">    -23.39211729 </i>
    <i name="e_wo_entrp">    -23.39211729 </i>
    <i name="e_0_energy">    -23.39211729 </i>
   </energy>
  </scstep>
  <scstep>
   <time name="dav">    0.94    0.94</time>
   <time name="total">    1.02    1.02</time>
   <energy>
    <i name="e_fr_energy">    -23.40072813 </i>
    <i name="e_wo_entrp">    -23.40072813 </i>
    <i name="e_0_energy">    -23.40072813 </i>
   </energy>
  </scstep>
  <scstep>
   <time name="diag">    0.16    0.16</time>
   <time name="diis">    0.72    0.72</time>
   <time name="orth">    0.01    0.01</time>
   <time name="total">    1.13    1.13</time>
   <energy>
    <i name="e_fr_energy">    -22.23577037 </i>
    <i name="e_wo_entrp">    -22.23577037 </i>
    <i name="e_0_energy">    -22.23577037 </i>
   </energy>
  </scstep>
  <scstep>
   <time name="diag">    0.16    0.16</time>
   <time name="diis">    0.70    0.70</time>
   <time name="orth">    0.01    0.01</time>
   <time name="total">    1.10    1.10</time>
   <energy>
    <i name="e_fr_energy">    -21.86159299 </i>
    <i name="e_wo_entrp">    -21.86159299 </i>
    <i name="e_0_energy">    -21.86159299 </i>
   </energy>
  </scstep>
  <scstep>
   <time name="diag">    0.16    0.16</time>
   <time name="diis">    0.72    0.72</time>
   <time name="orth">    0.01    0.01</time>
   <time name="total">    1.11    1.12</time>
   <energy>
    <i name="e_fr_energy">    -21.80229131 </i>
    <i name="e_wo_entrp">    -21.80229131 </i>
    <i name="e_0_energy">    -21.80229131 </i>
   </energy>
  </scstep>
  <scstep>
   <time name="diag">    0.16    0.16</time>
   <time name="diis">    0.81    0.81</time>
   <time name="orth">    0.01    0.01</time>
   <time name="total">    1.21    1.21</time>
   <energy>
    <i name="e_fr_energy">    -21.79745067 </i>
    <i name="e_wo_entrp">    -21.79745067 </i>
    <i name="e_0_energy">    -21.79745067 </i>
   </energy>
  </scstep>
  <scstep>
   <time name="diag">    0.16    0.16</time>
   <time name="diis">    0.81    0.81</time>
   <time name="orth">    0.01    0.01</time>
   <time name="total">    1.22    1.22</time>
   <energy>
    <i name="e_fr_energy">    -21.79670766 </i>
    <i name="e_wo_entrp">    -21.79670766 </i>
    <i name="e_0_energy">    -21.79670766 </i>
   </energy>
  </scstep>
  <scstep>
   <time name="diag">    0.16    0.16</time>
   <time name="diis">    0.76    0.76</time>
   <time name="orth">    0.01    0.01</time>
   <time name="total">    1.17    1.17</time>
   <energy>
    <i name="e_fr_energy">    -21.79663892 </i>
    <i name="e_wo_entrp">    -21.79663892 </i>
    <i name="e_0_energy">    -21.79663892 </i>
   </energy>
  </scstep>
  <scstep>
   <time name="diag">    0.16    0.16</time>
   <time name="diis">    0.74    0.74</time>
   <time name="orth">    0.01    0.01</time>
   <time name="total">    1.15    1.15</time>
   <energy>
    <i name="e_fr_energy">    -21.79648030 </i>
    <i name="e_wo_entrp">    -21.79648030 </i>
    <i name="e_0_energy">    -21.79648030 </i>
   </energy>
  </scstep>
  <scstep>
   <time name="diag">    0.16    0.16</time>
   <time name="diis">    0.71    0.71</time>
   <time name="orth">    0.01    0.01</time>
   <time name="total">    1.12    1.12</time>
   <energy>
    <i name="e_fr_energy">    -21.79681134 </i>
    <i name="e_wo_entrp">    -21.79681134 </i>
    <i name="e_0_energy">    -21.79681134 </i>
   </energy>
  </scstep>
  <scstep>
   <time name="diag">    0.16    0.16</time>
   <time name="diis">    0.76    0.76</time>
   <time name="orth">    0.01    0.01</time>
   <time name="total">    1.17    1.17</time>
   <energy>
    <i name="e_fr_energy">    -21.79686710 </i>
    <i name="e_wo_entrp">    -21.79686710 </i>
    <i name="e_0_energy">    -21.79686710 </i>
   </energy>
  </scstep>
  <scstep>
   <time name="diag">    0.16    0.16</time>
   <time name="diis">    0.73    0.73</time>
   <time name="orth">    0.01    0.01</time>
   <time name="total">    1.14    1.14</time>
   <energy>
    <i name="e_fr_energy">    -21.79699447 </i>
    <i name="e_wo_entrp">    -21.79699447 </i>
    <i name="e_0_energy">    -21.79699447 </i>
   </energy>
  </scstep>
  <scstep>
   <time name="diag">    0.16    0.16</time>
   <time name="diis">    0.60    0.60</time>
   <time name="orth">    0.01    0.01</time>
   <time name="total">    1.01    1.01</time>
   <energy>
    <i name="e_fr_energy">    -21.79703434 </i>
    <i name="e_wo_entrp">    -21.79703434 </i>
    <i name="e_0_energy">    -21.79703434 </i>
   </energy>
  </scstep>
  <scstep>
   <time name="diag">    0.16    0.16</time>
   <time name="diis">    0.54    0.54</time>
   <time name="orth">    0.01    0.01</time>
   <time name="total">    0.94    0.94</time>
   <energy>
    <i name="e_fr_energy">    -21.79706384 </i>
    <i name="e_wo_entrp">    -21.79706384 </i>
    <i name="e_0_energy">    -21.79706384 </i>
   </energy>
  </scstep>
  <scstep>
   <time name="diag">    0.16    0.16</time>
   <time name="diis">    0.51    0.51</time>
   <time name="orth">    0.01    0.01</time>
   <time name="total">    0.91    0.92</time>
   <energy>
    <i name="e_fr_energy">    -21.79706857 </i>
    <i name="e_wo_entrp">    -21.79706857 </i>
    <i name="e_0_energy">    -21.79706857 </i>
   </energy>
  </scstep>
  <scstep>
   <time name="diag">    0.16    0.16</time>
   <time name="diis">    0.51    0.51</time>
   <time name="orth">    0.01    0.01</time>
   <time name="total">    0.91    0.92</time>
   <energy>
    <i name="e_fr_energy">    -21.79707523 </i>
    <i name="e_wo_entrp">    -21.79707523 </i>
    <i name="e_0_energy">    -21.79707523 </i>
   </energy>
  </scstep>
  <scstep>
   <time name="diag">    0.16    0.16</time>
   <time name="diis">    0.49    0.49</time>
   <time name="orth">    0.01    0.01</time>
   <time name="total">    0.90    0.90</time>
   <energy>
    <i name="e_fr_energy">    -21.79707774 </i>
    <i name="e_wo_entrp">    -21.79707774 </i>
    <i name="e_0_energy">    -21.79707774 </i>
   </energy>
  </scstep>
  <scstep>
   <time name="diag">    0.16    0.16</time>
   <time name="diis">    0.40    0.40</time>
   <time name="orth">    0.01    0.01</time>
   <time name="total">    0.80    0.80</time>
   <energy>
    <i name="e_fr_energy">    -21.79707877 </i>
    <i name="e_wo_entrp">    -21.79707877 </i>
    <i name="e_0_energy">    -21.79707877 </i>
   </energy>
  </scstep>
  <scstep>
   <time name="diag">    0.16    0.16</time>
   <time name="diis">    0.37    0.37</time>
   <time name="orth">    0.01    0.01</time>
   <time name="total">    0.70    0.70</time>
   <energy>
    <i name="alphaZ">     10.92610231 </i>
    <i name="ewald">   5354.53473861 </i>
    <i name="hartreedc">  -6041.39047151 </i>
    <i name="XCdc">    -35.17121358 </i>
    <i name="pawpsdc">    473.39869166 </i>
    <i name="pawaedc">   -397.60745713 </i>
    <i name="eentropy">      0.00000000 </i>
    <i name="bandstr">   -157.64258358 </i>
    <i name="atom">    771.15511399 </i>
    <i name="e_fr_energy">    -21.79707923 </i>
    <i name="e_wo_entrp">    -21.79707923 </i>
    <i name="e_0_energy">    -21.79707923 </i>
   </energy>
  </scstep>
  <structure>
   <crystal>
    <varray name="basis" >
     <v>       3.18985683       0.00000000       0.00000000 </v>
     <v>      -1.59492842       2.76249705       0.00000000 </v>
     <v>       0.00000000       0.00000000      30.79397887 </v>
    </varray>
    <i name="volume">    271.35562051 </i>
    <varray name="rec_basis" >
     <v>       0.31349369       0.18099567       0.00000000 </v>
     <v>       0.00000000       0.36199134       0.00000000 </v>
     <v>       0.00000000       0.00000000       0.03247388 </v>
    </varray>
   </crystal>
   <varray name="positions" >
    <v>       0.33333300       0.66666700       0.12046214 </v>
    <v>       0.66666700       0.33333300       0.06984045 </v>
    <v>       0.66666600       0.33333300       0.17108384 </v>
   </varray>
  </structure>
  <varray name="forces" >
   <v>       0.00000000      -0.00000000      -0.00000000 </v>
   <v>       0.00000000       0.00000000      -0.00138928 </v>
   <v>      -0.00000000      -0.00000000       0.00138928 </v>
  </varray>
  <varray name="stress" >
   <v>      -0.02610520      -0.00000000       0.00000000 </v>
   <v>      -0.00000000      -0.02610520       0.00000000 </v>
   <v>       0.00000000       0.00000000      -0.10967476 </v>
  </varray>
  <energy>
   <i name="e_fr_energy">    -22.38835365 </i>
   <i name="e_wo_entrp">    -22.38835365 </i>
   <i name="e_0_energy">      0.00000000 </i>
  </energy>
  <time name="totalsc">   24.56   24.69</time>
  <eigenvalues>
   <array>
    <dimension dim="1">band</dimension>
    <dimension dim="2">kpoint</dimension>
    <dimension dim="3">spin</dimension>
    <field>eigene</field>
    <field>occ</field>
    <set>
     <set comment="spin 1">
      <set comment="kpoint 1">
       <r>  -17.8062    1.0000 </r>
       <r>  -16.5777    1.0000 </r>
       <r>   -9.3240    1.0000 </r>
       <r>   -6.3792    1.0000 </r>
       <r>   -6.3792    1.0000 </r>
       <r>   -5.4680    1.0000 </r>
       <r>   -5.2638    1.0000 </r>
       <r>   -5.2637    1.0000 </r>
       <r>   -3.7424    1.0000 </r>
       <r>   -0.9856    0.0000 </r>
       <r>   -0.9856    0.0000 </r>
       <r>   -0.7475    0.0000 </r>
       <r>   -0.7475    0.0000 </r>
       <r>    1.6673    0.0000 </r>
      </set>
      <set comment="kpoint 2">
       <r>  -17.6676    1.0000 </r>
       <r>  -16.5122    1.0000 </r>
       <r>   -9.1632    1.0000 </r>
       <r>   -6.6896    1.0000 </r>
       <r>   -6.2263    1.0000 </r>
       <r>   -6.1075    1.0000 </r>
       <r>   -5.4896    1.0000 </r>
       <r>   -4.8519    1.0000 </r>
       <r>   -3.8255    1.0000 </r>
       <r>   -1.1605    0.0000 </r>
       <r>   -1.1121    0.0000 </r>
       <r>   -0.9081    0.0000 </r>
       <r>   -0.7432    0.0000 </r>
       <r>    1.9197    0.0000 </r>
      </set>
      <set comment="kpoint 3">
       <r>  -17.2813    1.0000 </r>
       <r>  -16.3309    1.0000 </r>
       <r>   -8.8082    1.0000 </r>
       <r>   -7.3233    1.0000 </r>
       <r>   -6.8903    1.0000 </r>
       <r>   -5.9804    1.0000 </r>
       <r>   -5.8143    1.0000 </r>
       <r>   -4.8757    1.0000 </r>
       <r>   -4.1969    1.0000 </r>
       <r>   -1.5394    0.0000 </r>
       <r>   -1.2491    0.0000 </r>
       <r>   -1.1003    0.0000 </r>
       <r>   -0.2408    0.0000 </r>
       <r>    2.4871    0.0000 </r>
      </set>
      <set comment="kpoint 4">
       <r>  -16.7436    1.0000 </r>
       <r>  -16.0833    1.0000 </r>
       <r>   -8.8194    1.0000 </r>
       <r>   -7.6628    1.0000 </r>
       <r>   -7.6316    1.0000 </r>
       <r>   -6.4656    1.0000 </r>
       <r>   -5.2891    1.0000 </r>
       <r>   -5.2317    1.0000 </r>
       <r>   -4.6638    1.0000 </r>
       <r>   -1.5233    0.0000 </r>
       <r>   -1.5076    0.0000 </r>
       <r>   -0.5642    0.0000 </r>
       <r>    0.1966    0.0000 </r>
       <r>    3.2442    0.0000 </r>
      </set>
      <set comment="kpoint 5">
       <r>  -16.2372    1.0000 </r>
       <r>  -15.8582    1.0000 </r>
       <r>   -9.2629    1.0000 </r>
       <r>   -8.2739    1.0000 </r>
       <r>   -7.7134    1.0000 </r>
       <r>   -6.7978    1.0000 </r>
       <r>   -5.5037    1.0000 </r>
       <r>   -4.8721    1.0000 </r>
       <r>   -4.5988    1.0000 </r>
       <r>   -1.6000    0.0000 </r>
       <r>   -1.2350    0.0000 </r>
       <r>   -0.0328    0.0000 </r>
       <r>    0.4436    0.0000 </r>
       <r>    3.1048    0.0000 </r>
      </set>
      <set comment="kpoint 6">
       <r>  -16.0194    1.0000 </r>
       <r>  -15.7648    1.0000 </r>
       <r>   -9.4818    1.0000 </r>
       <r>   -8.5110    1.0000 </r>
       <r>   -7.8099    1.0000 </r>
       <r>   -6.9143    1.0000 </r>
       <r>   -5.5917    1.0000 </r>
       <r>   -4.7229    1.0000 </r>
       <r>   -4.3836    1.0000 </r>
       <r>   -1.5810    0.0000 </r>
       <r>   -1.0579    0.0000 </r>
       <r>    0.1594    0.0000 </r>
       <r>    0.5178    0.0000 </r>
       <r>    2.4277    0.0000 </r>
      </set>
      <set comment="kpoint 7">
       <r>  -17.4047    1.0000 </r>
       <r>  -16.3884    1.0000 </r>
       <r>   -8.8943    1.0000 </r>
       <r>   -7.1475    1.0000 </r>
       <r>   -6.5991    1.0000 </r>
       <r>   -6.0278    1.0000 </r>
       <r>   -5.9645    1.0000 </r>
       <r>   -4.6711    1.0000 </r>
       <r>   -4.0576    1.0000 </r>
       <r>   -1.4829    0.0000 </r>
       <r>   -1.2960    0.0000 </r>
       <r>   -1.1666    0.0000 </r>
       <r>   -0.3051    0.0000 </r>
       <r>    2.3201    0.0000 </r>
      </set>
      <set comment="kpoint 8">
       <r>  -16.9398    1.0000 </r>
       <r>  -16.1711    1.0000 </r>
       <r>   -8.6746    1.0000 </r>
       <r>   -7.5615    1.0000 </r>
       <r>   -7.2740    1.0000 </r>
       <r>   -6.6346    1.0000 </r>
       <r>   -5.6372    1.0000 </r>
       <r>   -4.8240    1.0000 </r>
       <r>   -4.4905    1.0000 </r>
       <r>   -1.7356    0.0000 </r>
       <r>   -1.3351    0.0000 </r>
       <r>   -1.0656    0.0000 </r>
       <r>    0.2158    0.0000 </r>
       <r>    3.0123    0.0000 </r>
      </set>
      <set comment="kpoint 9">
       <r>  -16.4076    1.0000 </r>
       <r>  -15.9269    1.0000 </r>
       <r>   -8.9689    1.0000 </r>
       <r>   -8.0619    1.0000 </r>
       <r>   -7.5858    1.0000 </r>
       <r>   -6.8689    1.0000 </r>
       <r>   -5.5295    1.0000 </r>
       <r>   -5.2308    1.0000 </r>
       <r>   -4.5341    1.0000 </r>
       <r>   -1.6494    0.0000 </r>
       <r>   -1.2931    0.0000 </r>
       <r>   -0.5099    0.0000 </r>
       <r>    0.4958    0.0000 </r>
       <r>    3.6864    0.0000 </r>
      </set>
      <set comment="kpoint 10">
       <r>  -16.0298    1.0000 </r>
       <r>  -15.7585    1.0000 </r>
       <r>   -9.2902    1.0000 </r>
       <r>   -8.5572    1.0000 </r>
       <r>   -7.7282    1.0000 </r>
       <r>   -6.9180    1.0000 </r>
       <r>   -5.5354    1.0000 </r>
       <r>   -5.4081    1.0000 </r>
       <r>   -4.2451    1.0000 </r>
       <r>   -1.5539    0.0000 </r>
       <r>   -1.0543    0.0000 </r>
       <r>   -0.0047    0.0000 </r>
       <r>    0.4442    0.0000 </r>
       <r>    2.7816    0.0000 </r>
      </set>
      <set comment="kpoint 11">
       <r>  -16.4727    1.0000 </r>
       <r>  -15.9507    1.0000 </r>
       <r>   -8.7738    1.0000 </r>
       <r>   -7.9287    1.0000 </r>
       <r>   -7.4593    1.0000 </r>
       <r>   -7.0417    1.0000 </r>
       <r>   -5.9850    1.0000 </r>
       <r>   -4.9739    1.0000 </r>
       <r>   -4.5285    1.0000 </r>
       <r>   -1.7294    0.0000 </r>
       <r>   -1.2625    0.0000 </r>
       <r>   -0.8915    0.0000 </r>
       <r>    0.6081    0.0000 </r>
       <r>    3.7771    0.0000 </r>
      </set>
      <set comment="kpoint 12">
       <r>  -16.0465    1.0000 </r>
       <r>  -15.7481    1.0000 </r>
       <r>   -8.9137    1.0000 </r>
       <r>   -8.6244    1.0000 </r>
       <r>   -7.4659    1.0000 </r>
       <r>   -6.9533    1.0000 </r>
       <r>   -6.4104    1.0000 </r>
       <r>   -5.3994    1.0000 </r>
       <r>   -4.2603    1.0000 </r>
       <r>   -1.5920    0.0000 </r>
       <r>   -1.0056    0.0000 </r>
       <r>   -0.5750    0.0000 </r>
       <r>    0.7574    0.0000 </r>
       <r>    3.5600    0.0000 </r>
      </set>
      <set comment="kpoint 13">
       <r>  -15.8689    1.0000 </r>
       <r>  -15.6633    1.0000 </r>
       <r>   -8.9341    1.0000 </r>
       <r>   -8.8928    1.0000 </r>
       <r>   -7.6633    1.0000 </r>
       <r>   -6.8271    1.0000 </r>
       <r>   -6.4665    1.0000 </r>
       <r>   -5.6584    1.0000 </r>
       <r>   -4.0098    1.0000 </r>
       <r>   -1.7736    0.0000 </r>
       <r>   -0.6341    0.0000 </r>
       <r>   -0.4321    0.0000 </r>
       <r>    0.7802    0.0000 </r>
       <r>    2.9715    0.0000 </r>
      </set>
      <set comment="kpoint 14">
       <r>  -15.8100    1.0000 </r>
       <r>  -15.6229    1.0000 </r>
       <r>   -9.0434    1.0000 </r>
       <r>   -8.5428    1.0000 </r>
       <r>   -7.5493    1.0000 </r>
       <r>   -7.2273    1.0000 </r>
       <r>   -6.7132    1.0000 </r>
       <r>   -5.7672    1.0000 </r>
       <r>   -3.8871    1.0000 </r>
       <r>   -1.9847    0.0000 </r>
       <r>   -0.6675    0.0000 </r>
       <r>   -0.4017    0.0000 </r>
       <r>    1.0138    0.0000 </r>
       <r>    3.4399    0.0000 </r>
      </set>
     </set>
    </set>
   </array>
  </eigenvalues>
  <separator name="orbital magnetization" >
   <v name="MAGDIPOLOUT">      0.00000000      0.00000000      0.00000000</v>
  </separator>
  <dos>
   <i name="efermi">     -3.67810262 </i>
   <total>
    <array>
     <dimension dim="1">gridpoints</dimension>
     <dimension dim="2">spin</dimension>
     <field>energy</field>
     <field>total</field>
     <field>integrated</field>
     <set>
      <set comment="spin 1">
       <r>   -19.8062     0.0000     0.0000 </r>
       <r>   -19.7210     0.0000     0.0000 </r>
       <r>   -19.6357     0.0000     0.0000 </r>
       <r>   -19.5504     0.0000     0.0000 </r>
       <r>   -19.4651     0.0000     0.0000 </r>
       <r>   -19.3798     0.0000     0.0000 </r>
       <r>   -19.2946     0.0000     0.0000 </r>
       <r>   -19.2093     0.0000     0.0000 </r>
       <r>   -19.1240     0.0000     0.0000 </r>
       <r>   -19.0387     0.0000     0.0000 </r>
       <r>   -18.9535     0.0000     0.0000 </r>
       <r>   -18.8682     0.0000     0.0000 </r>
       <r>   -18.7829     0.0000     0.0000 </r>
       <r>   -18.6976     0.0000     0.0000 </r>
       <r>   -18.6123     0.0000     0.0000 </r>
       <r>   -18.5271     0.0000     0.0000 </r>
       <r>   -18.4418     0.0000     0.0000 </r>
       <r>   -18.3565     0.0000     0.0000 </r>
       <r>   -18.2712     0.0000     0.0000 </r>
       <r>   -18.1860     0.0000     0.0000 </r>
       <r>   -18.1007     0.0000     0.0000 </r>
       <r>   -18.0154     0.0000     0.0000 </r>
       <r>   -17.9301     0.0000     0.0000 </r>
       <r>   -17.8448     0.0000     0.0000 </r>
       <r>   -17.7596     0.2912     0.0068 </r>
       <r>   -17.6743     0.8235     0.0543 </r>
       <r>   -17.5890     0.5058     0.0978 </r>
       <r>   -17.5037     0.5593     0.1432 </r>
       <r>   -17.4185     0.6128     0.1932 </r>
       <r>   -17.3332     0.6001     0.2454 </r>
       <r>   -17.2479     0.5964     0.2958 </r>
       <r>   -17.1626     0.6263     0.3480 </r>
       <r>   -17.0773     0.6562     0.4026 </r>
       <r>   -16.9921     0.6861     0.4599 </r>
       <r>   -16.9068     0.7177     0.5197 </r>
       <r>   -16.8215     0.7552     0.5825 </r>
       <r>   -16.7362     0.7929     0.6485 </r>
       <r>   -16.6510     0.8342     0.7178 </r>
       <r>   -16.5657     1.2124     0.7928 </r>
       <r>   -16.4804     1.9772     0.9595 </r>
       <r>   -16.3951     2.4073     1.1461 </r>
       <r>   -16.3098     2.5425     1.3562 </r>
       <r>   -16.2246     2.8577     1.5859 </r>
       <r>   -16.1393     3.2743     1.8470 </r>
       <r>   -16.0540     3.7337     2.1456 </r>
       <r>   -15.9687     4.0768     2.5753 </r>
       <r>   -15.8835     4.0116     2.9167 </r>
       <r>   -15.7982     3.9174     3.3268 </r>
       <r>   -15.7129     3.6185     3.7300 </r>
       <r>   -15.6276     2.8851     3.9662 </r>
       <r>   -15.5424     0.0000     4.0000 </r>
       <r>   -15.4571     0.0000     4.0000 </r>
       <r>   -15.3718     0.0000     4.0000 </r>
       <r>   -15.2865     0.0000     4.0000 </r>
       <r>   -15.2012     0.0000     4.0000 </r>
       <r>   -15.1160     0.0000     4.0000 </r>
       <r>   -15.0307     0.0000     4.0000 </r>
       <r>   -14.9454     0.0000     4.0000 </r>
       <r>   -14.8601     0.0000     4.0000 </r>
       <r>   -14.7749     0.0000     4.0000 </r>
       <r>   -14.6896     0.0000     4.0000 </r>
       <r>   -14.6043     0.0000     4.0000 </r>
       <r>   -14.5190     0.0000     4.0000 </r>
       <r>   -14.4337     0.0000     4.0000 </r>
       <r>   -14.3485     0.0000     4.0000 </r>
       <r>   -14.2632     0.0000     4.0000 </r>
       <r>   -14.1779     0.0000     4.0000 </r>
       <r>   -14.0926     0.0000     4.0000 </r>
       <r>   -14.0074     0.0000     4.0000 </r>
       <r>   -13.9221     0.0000     4.0000 </r>
       <r>   -13.8368     0.0000     4.0000 </r>
       <r>   -13.7515     0.0000     4.0000 </r>
       <r>   -13.6662     0.0000     4.0000 </r>
       <r>   -13.5810     0.0000     4.0000 </r>
       <r>   -13.4957     0.0000     4.0000 </r>
       <r>   -13.4104     0.0000     4.0000 </r>
       <r>   -13.3251     0.0000     4.0000 </r>
       <r>   -13.2399     0.0000     4.0000 </r>
       <r>   -13.1546     0.0000     4.0000 </r>
       <r>   -13.0693     0.0000     4.0000 </r>
       <r>   -12.9840     0.0000     4.0000 </r>
       <r>   -12.8987     0.0000     4.0000 </r>
       <r>   -12.8135     0.0000     4.0000 </r>
       <r>   -12.7282     0.0000     4.0000 </r>
       <r>   -12.6429     0.0000     4.0000 </r>
       <r>   -12.5576     0.0000     4.0000 </r>
       <r>   -12.4724     0.0000     4.0000 </r>
       <r>   -12.3871     0.0000     4.0000 </r>
       <r>   -12.3018     0.0000     4.0000 </r>
       <r>   -12.2165     0.0000     4.0000 </r>
       <r>   -12.1312     0.0000     4.0000 </r>
       <r>   -12.0460     0.0000     4.0000 </r>
       <r>   -11.9607     0.0000     4.0000 </r>
       <r>   -11.8754     0.0000     4.0000 </r>
       <r>   -11.7901     0.0000     4.0000 </r>
       <r>   -11.7049     0.0000     4.0000 </r>
       <r>   -11.6196     0.0000     4.0000 </r>
       <r>   -11.5343     0.0000     4.0000 </r>
       <r>   -11.4490     0.0000     4.0000 </r>
       <r>   -11.3637     0.0000     4.0000 </r>
       <r>   -11.2785     0.0000     4.0000 </r>
       <r>   -11.1932     0.0000     4.0000 </r>
       <r>   -11.1079     0.0000     4.0000 </r>
       <r>   -11.0226     0.0000     4.0000 </r>
       <r>   -10.9374     0.0000     4.0000 </r>
       <r>   -10.8521     0.0000     4.0000 </r>
       <r>   -10.7668     0.0000     4.0000 </r>
       <r>   -10.6815     0.0000     4.0000 </r>
       <r>   -10.5962     0.0000     4.0000 </r>
       <r>   -10.5110     0.0000     4.0000 </r>
       <r>   -10.4257     0.0000     4.0000 </r>
       <r>   -10.3404     0.0000     4.0000 </r>
       <r>   -10.2551     0.0000     4.0000 </r>
       <r>   -10.1699     0.0000     4.0000 </r>
       <r>   -10.0846     0.0000     4.0000 </r>
       <r>    -9.9993     0.0000     4.0000 </r>
       <r>    -9.9140     0.0000     4.0000 </r>
       <r>    -9.8288     0.0000     4.0000 </r>
       <r>    -9.7435     0.0000     4.0000 </r>
       <r>    -9.6582     0.0000     4.0000 </r>
       <r>    -9.5729     0.0000     4.0000 </r>
       <r>    -9.4876     0.0000     4.0000 </r>
       <r>    -9.4024     0.7141     4.0283 </r>
       <r>    -9.3171     1.5133     4.1221 </r>
       <r>    -9.2318     1.6549     4.2573 </r>
       <r>    -9.1465     1.8692     4.4175 </r>
       <r>    -9.0613     2.1235     4.5878 </r>
       <r>    -8.9760     4.4207     4.9056 </r>
       <r>    -8.8907     3.4748     5.2916 </r>
       <r>    -8.8054     5.4405     5.6216 </r>
       <r>    -8.7201     3.9098     6.0078 </r>
       <r>    -8.6349     1.8734     6.2416 </r>
       <r>    -8.5496     3.4564     6.4672 </r>
       <r>    -8.4643     1.4170     6.6451 </r>
       <r>    -8.3790     1.2158     6.7574 </r>
       <r>    -8.2938     1.0147     6.8525 </r>
       <r>    -8.2085     0.9070     6.9335 </r>
       <r>    -8.1232     0.8277     7.0075 </r>
       <r>    -8.0379     0.7943     7.0752 </r>
       <r>    -7.9526     0.8779     7.1465 </r>
       <r>    -7.8674     0.8892     7.2227 </r>
       <r>    -7.7821     2.2179     7.3165 </r>
       <r>    -7.6968     4.3025     7.6473 </r>
       <r>    -7.6115     5.1062     8.0528 </r>
       <r>    -7.5263     4.9139     8.5013 </r>
       <r>    -7.4410     2.1376     8.9361 </r>
       <r>    -7.3557     1.8700     9.1070 </r>
       <r>    -7.2704     1.1062     9.2525 </r>
       <r>    -7.1851     1.3616     9.3748 </r>
       <r>    -7.0999     1.5237     9.4964 </r>
       <r>    -7.0146     2.7006     9.6488 </r>
       <r>    -6.9293     6.0037     9.9959 </r>
       <r>    -6.8440     4.4489    10.6814 </r>
       <r>    -6.7588     2.0021    10.9011 </r>
       <r>    -6.6735     2.5670    11.1094 </r>
       <r>    -6.5882     2.3887    11.3219 </r>
       <r>    -6.5029     2.2468    11.5196 </r>
       <r>    -6.4176     1.6992    11.6952 </r>
       <r>    -6.3324     1.6797    11.8271 </r>
       <r>    -6.2471     2.0793    11.9874 </r>
       <r>    -6.1618     1.0473    12.0999 </r>
       <r>    -6.0765     2.8508    12.2425 </r>
       <r>    -5.9913     1.2830    12.4656 </r>
       <r>    -5.9060     1.4747    12.5554 </r>
       <r>    -5.8207     2.4699    12.7236 </r>
       <r>    -5.7354     3.5689    12.9947 </r>
       <r>    -5.6501     3.3770    13.2886 </r>
       <r>    -5.5649     5.2138    13.5669 </r>
       <r>    -5.4796     3.6546    14.1033 </r>
       <r>    -5.3943     3.0605    14.3878 </r>
       <r>    -5.3090     1.9003    14.5993 </r>
       <r>    -5.2238     2.6921    14.7426 </r>
       <r>    -5.1385     2.4910    14.9636 </r>
       <r>    -5.0532     2.2898    15.1675 </r>
       <r>    -4.9679     2.1004    15.3542 </r>
       <r>    -4.8826     2.0670    15.5319 </r>
       <r>    -4.7974     3.0926    15.8097 </r>
       <r>    -4.7121     0.9415    15.9807 </r>
       <r>    -4.6268     1.5574    16.0288 </r>
       <r>    -4.5415     2.6618    16.2435 </r>
       <r>    -4.4563     2.7163    16.6618 </r>
       <r>    -4.3710     2.8416    16.8996 </r>
       <r>    -4.2857     2.8365    17.1417 </r>
       <r>    -4.2004     2.2584    17.3618 </r>
       <r>    -4.1152     1.8716    17.5378 </r>
       <r>    -4.0299     1.4706    17.6808 </r>
       <r>    -3.9446     1.4537    17.8013 </r>
       <r>    -3.8593     0.5358    17.9222 </r>
       <r>    -3.7740     0.5502    17.9913 </r>
       <r>    -3.6888     0.0000    18.0000 </r>
       <r>    -3.6035     0.0000    18.0000 </r>
       <r>    -3.5182     0.0000    18.0000 </r>
       <r>    -3.4329     0.0000    18.0000 </r>
       <r>    -3.3477     0.0000    18.0000 </r>
       <r>    -3.2624     0.0000    18.0000 </r>
       <r>    -3.1771     0.0000    18.0000 </r>
       <r>    -3.0918     0.0000    18.0000 </r>
       <r>    -3.0065     0.0000    18.0000 </r>
       <r>    -2.9213     0.0000    18.0000 </r>
       <r>    -2.8360     0.0000    18.0000 </r>
       <r>    -2.7507     0.0000    18.0000 </r>
       <r>    -2.6654     0.0000    18.0000 </r>
       <r>    -2.5802     0.0000    18.0000 </r>
       <r>    -2.4949     0.0000    18.0000 </r>
       <r>    -2.4096     0.0000    18.0000 </r>
       <r>    -2.3243     0.0000    18.0000 </r>
       <r>    -2.2390     0.0000    18.0000 </r>
       <r>    -2.1538     0.0000    18.0000 </r>
       <r>    -2.0685     0.0000    18.0000 </r>
       <r>    -1.9832     0.5698    18.0209 </r>
       <r>    -1.8979     0.6534    18.0730 </r>
       <r>    -1.8127     0.7370    18.1323 </r>
       <r>    -1.7274     4.4751    18.2829 </r>
       <r>    -1.6421     6.9617    18.7438 </r>
       <r>    -1.5568     8.6556    19.6498 </r>
       <r>    -1.4715     1.1999    19.7954 </r>
       <r>    -1.3863     2.4932    19.9529 </r>
       <r>    -1.3010     8.4855    20.3814 </r>
       <r>    -1.2157     3.7698    20.8282 </r>
       <r>    -1.1304     6.0457    21.1890 </r>
       <r>    -1.0452     4.2545    21.8084 </r>
       <r>    -0.9599     2.7154    22.0909 </r>
       <r>    -0.8746     2.5009    22.3101 </r>
       <r>    -0.7893     2.1607    22.5088 </r>
       <r>    -0.7040     2.3150    22.7541 </r>
       <r>    -0.6188     1.7573    23.0141 </r>
       <r>    -0.5335     2.3886    23.1882 </r>
       <r>    -0.4482     3.0231    23.4166 </r>
       <r>    -0.3629     1.6062    23.6819 </r>
       <r>    -0.2777     1.5432    23.8164 </r>
       <r>    -0.1924     1.4858    23.9452 </r>
       <r>    -0.1071     1.4452    24.0702 </r>
       <r>    -0.0218     1.7065    24.1933 </r>
       <r>     0.0635     1.8398    24.3784 </r>
       <r>     0.1487     0.8650    24.4938 </r>
       <r>     0.2340     1.2031    24.5699 </r>
       <r>     0.3193     1.3555    24.6790 </r>
       <r>     0.4046     1.5080    24.8011 </r>
       <r>     0.4898     4.2654    25.2220 </r>
       <r>     0.5751     1.9036    25.4108 </r>
       <r>     0.6604     1.7818    25.5703 </r>
       <r>     0.7457     1.5710    25.7133 </r>
       <r>     0.8310     1.1783    25.8253 </r>
       <r>     0.9162     0.8684    25.9126 </r>
       <r>     1.0015     0.5585    25.9734 </r>
       <r>     1.0868     0.0000    26.0000 </r>
       <r>     1.1721     0.0000    26.0000 </r>
       <r>     1.2573     0.0000    26.0000 </r>
       <r>     1.3426     0.0000    26.0000 </r>
       <r>     1.4279     0.0000    26.0000 </r>
       <r>     1.5132     0.0000    26.0000 </r>
       <r>     1.5984     0.0000    26.0000 </r>
       <r>     1.6837     0.0309    26.0003 </r>
       <r>     1.7690     0.1915    26.0097 </r>
       <r>     1.8543     0.3521    26.0329 </r>
       <r>     1.9396     0.3058    26.0660 </r>
       <r>     2.0248     0.3321    26.0932 </r>
       <r>     2.1101     0.3584    26.1226 </r>
       <r>     2.1954     0.3846    26.1543 </r>
       <r>     2.2807     0.4109    26.1882 </r>
       <r>     2.3659     0.4136    26.2239 </r>
       <r>     2.4512     0.4421    26.2589 </r>
       <r>     2.5365     0.6113    26.3035 </r>
       <r>     2.6218     0.7949    26.3634 </r>
       <r>     2.7071     0.9785    26.4391 </r>
       <r>     2.7923     1.4168    26.5333 </r>
       <r>     2.8776     1.2934    26.6488 </r>
       <r>     2.9629     1.1699    26.7539 </r>
       <r>     3.0482     1.2379    26.8556 </r>
       <r>     3.1334     1.4360    26.9673 </r>
       <r>     3.2187     1.7914    27.1049 </r>
       <r>     3.3040     1.8555    27.2641 </r>
       <r>     3.3893     1.7958    27.4198 </r>
       <r>     3.4746     1.6013    27.5836 </r>
       <r>     3.5598     1.8400    27.7304 </r>
       <r>     3.6451     1.5798    27.8573 </r>
       <r>     3.7304     0.8589    27.9800 </r>
       <r>     3.8157     0.0000    28.0000 </r>
       <r>     3.9009     0.0000    28.0000 </r>
       <r>     3.9862     0.0000    28.0000 </r>
       <r>     4.0715     0.0000    28.0000 </r>
       <r>     4.1568     0.0000    28.0000 </r>
       <r>     4.2421     0.0000    28.0000 </r>
       <r>     4.3273     0.0000    28.0000 </r>
       <r>     4.4126     0.0000    28.0000 </r>
       <r>     4.4979     0.0000    28.0000 </r>
       <r>     4.5832     0.0000    28.0000 </r>
       <r>     4.6684     0.0000    28.0000 </r>
       <r>     4.7537     0.0000    28.0000 </r>
       <r>     4.8390     0.0000    28.0000 </r>
       <r>     4.9243     0.0000    28.0000 </r>
       <r>     5.0096     0.0000    28.0000 </r>
       <r>     5.0948     0.0000    28.0000 </r>
       <r>     5.1801     0.0000    28.0000 </r>
       <r>     5.2654     0.0000    28.0000 </r>
       <r>     5.3507     0.0000    28.0000 </r>
       <r>     5.4359     0.0000    28.0000 </r>
       <r>     5.5212     0.0000    28.0000 </r>
       <r>     5.6065     0.0000    28.0000 </r>
       <r>     5.6918     0.0000    28.0000 </r>
       <r>     5.7771     0.0000    28.0000 </r>
      </set>
     </set>
    </array>
   </total>
  </dos>
 </calculation>
 <structure name="finalpos" >
  <crystal>
   <varray name="basis" >
    <v>       3.18985683       0.00000000       0.00000000 </v>
    <v>      -1.59492842       2.76249705       0.00000000 </v>
    <v>       0.00000000       0.00000000      30.79397887 </v>
   </varray>
   <i name="volume">    271.35562051 </i>
   <varray name="rec_basis" >
    <v>       0.31349369       0.18099567       0.00000000 </v>
    <v>       0.00000000       0.36199134       0.00000000 </v>
    <v>       0.00000000       0.00000000       0.03247388 </v>
   </varray>
  </crystal>
  <varray name="positions" >
   <v>       0.33333300       0.66666700       0.12046214 </v>
   <v>       0.66666700       0.33333300       0.06984045 </v>
   <v>       0.66666600       0.33333300       0.17108384 </v>
  </varray>
 </structure>
</modeling>
