unknown system                          
           1
     3.189857    0.000000    0.000000
    -1.594928    2.762497    0.000000
     0.000000    0.000000   30.793979
   Mo   S 
   1   2
Direct configuration=     1
   0.33333300  0.66666700  0.12046214
   0.66666700  0.33333300  0.06984045
   0.66666600  0.33333300  0.17108384
