   3   3   0   0
  0.7897505E+02  0.3190316E-09  0.3190316E-09  0.2687900E-08  0.5000000E-15
  1.000000000000000E-004
  CAR 
 unknown system                          
      6.09995534    -19.46350125  301     -3.42243224      1.00000000
    -19.464  0.0000E+00  0.0000E+00
    -19.378  0.0000E+00  0.0000E+00
    -19.293  0.0000E+00  0.0000E+00
    -19.208  0.0000E+00  0.0000E+00
    -19.123  0.0000E+00  0.0000E+00
    -19.037  0.0000E+00  0.0000E+00
    -18.952  0.0000E+00  0.0000E+00
    -18.867  0.0000E+00  0.0000E+00
    -18.782  0.0000E+00  0.0000E+00
    -18.697  0.0000E+00  0.0000E+00
    -18.611  0.0000E+00  0.0000E+00
    -18.526  0.0000E+00  0.0000E+00
    -18.441  0.0000E+00  0.0000E+00
    -18.356  0.0000E+00  0.0000E+00
    -18.271  0.0000E+00  0.0000E+00
    -18.185  0.0000E+00  0.0000E+00
    -18.100  0.0000E+00  0.0000E+00
    -18.015  0.0000E+00  0.0000E+00
    -17.930  0.0000E+00  0.0000E+00
    -17.844  0.0000E+00  0.0000E+00
    -17.759  0.0000E+00  0.0000E+00
    -17.674  0.0000E+00  0.0000E+00
    -17.589  0.0000E+00  0.0000E+00
    -17.504  0.0000E+00  0.0000E+00
    -17.418  0.1843E+00  0.4154E-02
    -17.333  0.5327E+00  0.3470E-01
    -17.248  0.4780E+00  0.9440E-01
    -17.163  0.5174E+00  0.1368E+00
    -17.078  0.5569E+00  0.1826E+00
    -16.992  0.5964E+00  0.2317E+00
    -16.907  0.6359E+00  0.2842E+00
    -16.822  0.6622E+00  0.3399E+00
    -16.737  0.6694E+00  0.3966E+00
    -16.652  0.6853E+00  0.4541E+00
    -16.566  0.7183E+00  0.5139E+00
    -16.481  0.7514E+00  0.5765E+00
    -16.396  0.7844E+00  0.6419E+00
    -16.311  0.8174E+00  0.7102E+00
    -16.225  0.1387E+01  0.7893E+00
    -16.140  0.2061E+01  0.9708E+00
    -16.055  0.2356E+01  0.1159E+01
    -15.970  0.2676E+01  0.1373E+01
    -15.885  0.2892E+01  0.1610E+01
    -15.799  0.3230E+01  0.1871E+01
    -15.714  0.3569E+01  0.2161E+01
    -15.629  0.4222E+01  0.2618E+01
    -15.544  0.4245E+01  0.2975E+01
    -15.459  0.3767E+01  0.3367E+01
    -15.373  0.3348E+01  0.3777E+01
    -15.288  0.0000E+00  0.4000E+01
    -15.203  0.0000E+00  0.4000E+01
    -15.118  0.0000E+00  0.4000E+01
    -15.033  0.0000E+00  0.4000E+01
    -14.947  0.0000E+00  0.4000E+01
    -14.862  0.0000E+00  0.4000E+01
    -14.777  0.0000E+00  0.4000E+01
    -14.692  0.0000E+00  0.4000E+01
    -14.606  0.0000E+00  0.4000E+01
    -14.521  0.0000E+00  0.4000E+01
    -14.436  0.0000E+00  0.4000E+01
    -14.351  0.0000E+00  0.4000E+01
    -14.266  0.0000E+00  0.4000E+01
    -14.180  0.0000E+00  0.4000E+01
    -14.095  0.0000E+00  0.4000E+01
    -14.010  0.0000E+00  0.4000E+01
    -13.925  0.0000E+00  0.4000E+01
    -13.840  0.0000E+00  0.4000E+01
    -13.754  0.0000E+00  0.4000E+01
    -13.669  0.0000E+00  0.4000E+01
    -13.584  0.0000E+00  0.4000E+01
    -13.499  0.0000E+00  0.4000E+01
    -13.413  0.0000E+00  0.4000E+01
    -13.328  0.0000E+00  0.4000E+01
    -13.243  0.0000E+00  0.4000E+01
    -13.158  0.0000E+00  0.4000E+01
    -13.073  0.0000E+00  0.4000E+01
    -12.987  0.0000E+00  0.4000E+01
    -12.902  0.0000E+00  0.4000E+01
    -12.817  0.0000E+00  0.4000E+01
    -12.732  0.0000E+00  0.4000E+01
    -12.647  0.0000E+00  0.4000E+01
    -12.561  0.0000E+00  0.4000E+01
    -12.476  0.0000E+00  0.4000E+01
    -12.391  0.0000E+00  0.4000E+01
    -12.306  0.0000E+00  0.4000E+01
    -12.221  0.0000E+00  0.4000E+01
    -12.135  0.0000E+00  0.4000E+01
    -12.050  0.0000E+00  0.4000E+01
    -11.965  0.0000E+00  0.4000E+01
    -11.880  0.0000E+00  0.4000E+01
    -11.794  0.0000E+00  0.4000E+01
    -11.709  0.0000E+00  0.4000E+01
    -11.624  0.0000E+00  0.4000E+01
    -11.539  0.0000E+00  0.4000E+01
    -11.454  0.0000E+00  0.4000E+01
    -11.368  0.0000E+00  0.4000E+01
    -11.283  0.0000E+00  0.4000E+01
    -11.198  0.0000E+00  0.4000E+01
    -11.113  0.0000E+00  0.4000E+01
    -11.028  0.0000E+00  0.4000E+01
    -10.942  0.0000E+00  0.4000E+01
    -10.857  0.0000E+00  0.4000E+01
    -10.772  0.0000E+00  0.4000E+01
    -10.687  0.0000E+00  0.4000E+01
    -10.602  0.0000E+00  0.4000E+01
    -10.516  0.0000E+00  0.4000E+01
    -10.431  0.0000E+00  0.4000E+01
    -10.346  0.0000E+00  0.4000E+01
    -10.261  0.0000E+00  0.4000E+01
    -10.175  0.0000E+00  0.4000E+01
    -10.090  0.0000E+00  0.4000E+01
    -10.005  0.0000E+00  0.4000E+01
     -9.920  0.0000E+00  0.4000E+01
     -9.835  0.0000E+00  0.4000E+01
     -9.749  0.0000E+00  0.4000E+01
     -9.664  0.0000E+00  0.4000E+01
     -9.579  0.0000E+00  0.4000E+01
     -9.494  0.0000E+00  0.4000E+01
     -9.409  0.0000E+00  0.4000E+01
     -9.323  0.0000E+00  0.4000E+01
     -9.238  0.0000E+00  0.4000E+01
     -9.153  0.0000E+00  0.4000E+01
     -9.068  0.4701E+00  0.4018E+01
     -8.982  0.1003E+01  0.4080E+01
     -8.897  0.1798E+01  0.4200E+01
     -8.812  0.2635E+01  0.4396E+01
     -8.727  0.2851E+01  0.4637E+01
     -8.642  0.3818E+01  0.4954E+01
     -8.556  0.3154E+01  0.5251E+01
     -8.471  0.4944E+01  0.5522E+01
     -8.386  0.3814E+01  0.5976E+01
     -8.301  0.5260E+01  0.6169E+01
     -8.216  0.2725E+01  0.6500E+01
     -8.130  0.1327E+01  0.6639E+01
     -8.045  0.1192E+01  0.6746E+01
     -7.960  0.1056E+01  0.6842E+01
     -7.875  0.9206E+00  0.6926E+01
     -7.790  0.8328E+00  0.6999E+01
     -7.704  0.8376E+00  0.7071E+01
     -7.619  0.8423E+00  0.7142E+01
     -7.534  0.8471E+00  0.7214E+01
     -7.449  0.1889E+01  0.7303E+01
     -7.363  0.4845E+01  0.7589E+01
     -7.278  0.5170E+01  0.8123E+01
     -7.193  0.5146E+01  0.8544E+01
     -7.108  0.3254E+01  0.8902E+01
     -7.023  0.1446E+01  0.9100E+01
     -6.937  0.1187E+01  0.9208E+01
     -6.852  0.1091E+01  0.9305E+01
     -6.767  0.9943E+00  0.9394E+01
     -6.682  0.8982E+00  0.9474E+01
     -6.597  0.1173E+02  0.1005E+02
     -6.511  0.3825E+01  0.1064E+02
     -6.426  0.2388E+01  0.1090E+02
     -6.341  0.2384E+01  0.1119E+02
     -6.256  0.1838E+01  0.1135E+02
     -6.171  0.1726E+01  0.1151E+02
     -6.085  0.1615E+01  0.1165E+02
     -6.000  0.3513E+01  0.1181E+02
     -5.915  0.2154E+01  0.1206E+02
     -5.830  0.1684E+01  0.1224E+02
     -5.744  0.8721E+00  0.1234E+02
     -5.659  0.8657E+00  0.1241E+02
     -5.574  0.8593E+00  0.1248E+02
     -5.489  0.8529E+00  0.1256E+02
     -5.404  0.3726E+01  0.1274E+02
     -5.318  0.9322E+01  0.1325E+02
     -5.233  0.6999E+01  0.1396E+02
     -5.148  0.1847E+01  0.1435E+02
     -5.063  0.1498E+01  0.1449E+02
     -4.978  0.1451E+01  0.1461E+02
     -4.892  0.1476E+01  0.1473E+02
     -4.807  0.1660E+01  0.1487E+02
     -4.722  0.4298E+01  0.1503E+02
     -4.637  0.3268E+01  0.1543E+02
     -4.551  0.2295E+01  0.1564E+02
     -4.466  0.2709E+01  0.1585E+02
     -4.381  0.6692E+00  0.1599E+02
     -4.296  0.1376E+01  0.1603E+02
     -4.211  0.4229E+01  0.1628E+02
     -4.125  0.3712E+01  0.1661E+02
     -4.040  0.3394E+01  0.1692E+02
     -3.955  0.3029E+01  0.1719E+02
     -3.870  0.2113E+01  0.1741E+02
     -3.785  0.1799E+01  0.1758E+02
     -3.699  0.1485E+01  0.1772E+02
     -3.614  0.1172E+01  0.1783E+02
     -3.529  0.8522E+00  0.1796E+02
     -3.444  0.1850E-01  0.1800E+02
     -3.359  0.0000E+00  0.1800E+02
     -3.273  0.0000E+00  0.1800E+02
     -3.188  0.0000E+00  0.1800E+02
     -3.103  0.0000E+00  0.1800E+02
     -3.018  0.0000E+00  0.1800E+02
     -2.932  0.0000E+00  0.1800E+02
     -2.847  0.0000E+00  0.1800E+02
     -2.762  0.0000E+00  0.1800E+02
     -2.677  0.0000E+00  0.1800E+02
     -2.592  0.0000E+00  0.1800E+02
     -2.506  0.0000E+00  0.1800E+02
     -2.421  0.0000E+00  0.1800E+02
     -2.336  0.0000E+00  0.1800E+02
     -2.251  0.0000E+00  0.1800E+02
     -2.166  0.0000E+00  0.1800E+02
     -2.080  0.0000E+00  0.1800E+02
     -1.995  0.0000E+00  0.1800E+02
     -1.910  0.0000E+00  0.1800E+02
     -1.825  0.0000E+00  0.1800E+02
     -1.740  0.0000E+00  0.1800E+02
     -1.654  0.0000E+00  0.1800E+02
     -1.569  0.6955E+00  0.1806E+02
     -1.484  0.9180E+00  0.1813E+02
     -1.399  0.5851E+01  0.1836E+02
     -1.313  0.8248E+01  0.1898E+02
     -1.228  0.9480E+00  0.1971E+02
     -1.143  0.8013E+00  0.1978E+02
     -1.058  0.3624E+01  0.1991E+02
     -0.973  0.5870E+01  0.2051E+02
     -0.887  0.5623E+01  0.2094E+02
     -0.802  0.4782E+01  0.2133E+02
     -0.717  0.4061E+01  0.2183E+02
     -0.632  0.3289E+01  0.2214E+02
     -0.547  0.2454E+01  0.2239E+02
     -0.461  0.2716E+01  0.2259E+02
     -0.376  0.2630E+01  0.2281E+02
     -0.291  0.1872E+01  0.2307E+02
     -0.206  0.2370E+01  0.2325E+02
     -0.120  0.2036E+01  0.2350E+02
     -0.035  0.1975E+01  0.2367E+02
      0.050  0.1915E+01  0.2384E+02
      0.135  0.1754E+01  0.2400E+02
      0.220  0.1915E+01  0.2417E+02
      0.306  0.1623E+01  0.2432E+02
      0.391  0.1250E+01  0.2444E+02
      0.476  0.9587E+00  0.2453E+02
      0.561  0.1058E+01  0.2462E+02
      0.646  0.1158E+01  0.2471E+02
      0.732  0.3012E+01  0.2485E+02
      0.817  0.1398E+02  0.2528E+02
      0.902  0.1807E+01  0.2551E+02
      0.987  0.1479E+01  0.2565E+02
      1.072  0.1151E+01  0.2576E+02
      1.158  0.1105E+01  0.2585E+02
      1.243  0.1269E+01  0.2595E+02
      1.328  0.0000E+00  0.2600E+02
      1.413  0.0000E+00  0.2600E+02
      1.499  0.0000E+00  0.2600E+02
      1.584  0.0000E+00  0.2600E+02
      1.669  0.0000E+00  0.2600E+02
      1.754  0.0000E+00  0.2600E+02
      1.839  0.0000E+00  0.2600E+02
      1.925  0.0000E+00  0.2600E+02
      2.010  0.1812E-01  0.2600E+02
      2.095  0.1058E+00  0.2601E+02
      2.180  0.1935E+00  0.2602E+02
      2.265  0.2812E+00  0.2604E+02
      2.351  0.3689E+00  0.2607E+02
      2.436  0.3533E+00  0.2610E+02
      2.521  0.3761E+00  0.2613E+02
      2.606  0.3990E+00  0.2616E+02
      2.691  0.4218E+00  0.2620E+02
      2.777  0.4956E+00  0.2624E+02
      2.862  0.6391E+00  0.2628E+02
      2.947  0.7827E+00  0.2635E+02
      3.032  0.8848E+00  0.2642E+02
      3.118  0.9818E+00  0.2650E+02
      3.203  0.1100E+01  0.2658E+02
      3.288  0.1658E+01  0.2669E+02
      3.373  0.1693E+01  0.2684E+02
      3.458  0.1729E+01  0.2698E+02
      3.544  0.2083E+01  0.2717E+02
      3.629  0.2120E+01  0.2735E+02
      3.714  0.2080E+01  0.2753E+02
      3.799  0.1596E+01  0.2769E+02
      3.884  0.1112E+01  0.2781E+02
      3.970  0.1328E+01  0.2791E+02
      4.055  0.4595E+00  0.2799E+02
      4.140  0.0000E+00  0.2800E+02
      4.225  0.0000E+00  0.2800E+02
      4.311  0.0000E+00  0.2800E+02
      4.396  0.0000E+00  0.2800E+02
      4.481  0.0000E+00  0.2800E+02
      4.566  0.0000E+00  0.2800E+02
      4.651  0.0000E+00  0.2800E+02
      4.737  0.0000E+00  0.2800E+02
      4.822  0.0000E+00  0.2800E+02
      4.907  0.0000E+00  0.2800E+02
      4.992  0.0000E+00  0.2800E+02
      5.077  0.0000E+00  0.2800E+02
      5.163  0.0000E+00  0.2800E+02
      5.248  0.0000E+00  0.2800E+02
      5.333  0.0000E+00  0.2800E+02
      5.418  0.0000E+00  0.2800E+02
      5.503  0.0000E+00  0.2800E+02
      5.589  0.0000E+00  0.2800E+02
      5.674  0.0000E+00  0.2800E+02
      5.759  0.0000E+00  0.2800E+02
      5.844  0.0000E+00  0.2800E+02
      5.930  0.0000E+00  0.2800E+02
      6.015  0.0000E+00  0.2800E+02
      6.100  0.0000E+00  0.2800E+02
