    3    3    1    1
  0.7897505E+02  0.3190316E-09  0.3190316E-09  0.2687900E-08  0.5000000E-15
  1.000000000000000E-004
  CAR 
 unknown system                          
     18     10     14
 
  0.0000000E+00  0.0000000E+00  0.0000000E+00  0.1562500E-01
    1      -17.463501   1.000000
    2      -16.255444   1.000000
    3       -8.984282   1.000000
    4       -6.023490   1.000000
    5       -6.023484   1.000000
    6       -5.162207   1.000000
    7       -4.917973   1.000000
    8       -4.917941   1.000000
    9       -3.441845   1.000000
   10       -0.670248   0.000000
   11       -0.670217   0.000000
   12       -0.446550   0.000000
   13       -0.446536   0.000000
   14        1.992196   0.000000
 
  0.1250000E+00  0.0000000E+00  0.0000000E+00  0.9375000E-01
    1      -17.249353   1.000000
    2      -16.153054   1.000000
    3       -8.739756   1.000000
    4       -6.486929   1.000000
    5       -5.970272   1.000000
    6       -5.789106   1.000000
    7       -5.253698   1.000000
    8       -4.484701   1.000000
    9       -3.580276   1.000000
   10       -0.950361   0.000000
   11       -0.884514   0.000000
   12       -0.683166   0.000000
   13       -0.315459   0.000000
   14        2.419025   0.000000
 
  0.2500000E+00  0.0000000E+00  0.0000000E+00  0.9375000E-01
    1      -16.680614   1.000000
    2      -15.884285   1.000000
    3       -8.373671   1.000000
    4       -7.213478   1.000000
    5       -6.951116   1.000000
    6       -5.888730   1.000000
    7       -5.202041   1.000000
    8       -4.736293   1.000000
    9       -4.148216   1.000000
   10       -1.274501   0.000000
   11       -1.097939   0.000000
   12       -0.555788   0.000000
   13        0.301486   0.000000
   14        3.179776   0.000000
 
  0.3750000E+00  0.0000000E+00  0.0000000E+00  0.9375000E-01
    1      -16.005499   1.000000
    2      -15.575846   1.000000
    3       -8.810929   1.000000
    4       -7.818501   1.000000
    5       -7.346329   1.000000
    6       -6.386058   1.000000
    7       -5.145595   1.000000
    8       -4.611528   1.000000
    9       -4.343380   1.000000
   10       -1.279441   0.000000
   11       -1.000573   0.000000
   12        0.162750   0.000000
   13        0.694810   0.000000
   14        3.701555   0.000000
 
  0.5000000E+00  0.0000000E+00  0.0000000E+00  0.4687500E-01
    1      -15.677243   1.000000
    2      -15.432518   1.000000
    3       -9.143604   1.000000
    4       -8.183441   1.000000
    5       -7.472621   1.000000
    6       -6.566638   1.000000
    7       -5.284450   1.000000
    8       -4.384428   1.000000
    9       -4.062573   1.000000
   10       -1.257166   0.000000
   11       -0.741244   0.000000
   12        0.461350   0.000000
   13        0.810249   0.000000
   14        2.740759   0.000000
 
  0.1250000E+00  0.1250000E+00  0.0000000E+00  0.9375000E-01
    1      -16.856541   1.000000
    2      -15.966040   1.000000
    3       -8.392491   1.000000
    4       -7.050914   1.000000
    5       -6.532429   1.000000
    6       -6.067539   1.000000
    7       -5.449650   1.000000
    8       -4.350229   1.000000
    9       -3.952155   1.000000
   10       -1.349607   0.000000
   11       -0.971450   0.000000
   12       -0.959609   0.000000
   13        0.279358   0.000000
   14        2.956641   0.000000
 
  0.2500000E+00  0.1250000E+00  0.0000000E+00  0.1875000E+00
    1      -16.222951   1.000000
    2      -15.667495   1.000000
    3       -8.455232   1.000000
    4       -7.477653   1.000000
    5       -7.214502   1.000000
    6       -6.571839   1.000000
    7       -5.350180   1.000000
    8       -4.712447   1.000000
    9       -4.235788   1.000000
   10       -1.432976   0.000000
   11       -0.984561   0.000000
   12       -0.489632   0.000000
   13        0.787175   0.000000
   14        3.927186   0.000000
 
  0.3750000E+00  0.1250000E+00  0.0000000E+00  0.1875000E+00
    1      -15.692476   1.000000
    2      -15.423568   1.000000
    3       -8.856240   1.000000
    4       -8.240690   1.000000
    5       -7.344879   1.000000
    6       -6.588649   1.000000
    7       -5.334992   1.000000
    8       -5.194271   1.000000
    9       -3.908907   1.000000
   10       -1.238302   0.000000
   11       -0.728002   0.000000
   12        0.132071   0.000000
   13        0.820879   0.000000
   14        3.267610   0.000000
 
  0.2500000E+00  0.2500000E+00  0.0000000E+00  0.9375000E-01
    1      -15.707438   1.000000
    2      -15.414573   1.000000
    3       -8.495842   1.000000
    4       -8.291477   1.000000
    5       -7.017736   1.000000
    6       -6.636968   1.000000
    7       -6.317813   1.000000
    8       -5.060827   1.000000
    9       -3.937779   1.000000
   10       -1.289291   0.000000
   11       -0.678283   0.000000
   12       -0.366480   0.000000
   13        1.108888   0.000000
   14        4.099955   0.000000
 
  0.3750000E+00  0.2500000E+00  0.0000000E+00  0.9375000E-01
    1      -15.472555   1.000000
    2      -15.295413   1.000000
    3       -8.675901   1.000000
    4       -8.326848   1.000000
    5       -7.302079   1.000000
    6       -6.639486   1.000000
    7       -6.409338   1.000000
    8       -5.447110   1.000000
    9       -3.570359   1.000000
   10       -1.614983   0.000000
   11       -0.308087   0.000000
   12       -0.127682   0.000000
   13        1.254170   0.000000
   14        3.510578   0.000000
