perl: warning: Setting locale failed.
perl: warning: Please check that your locale settings:
	LANGUAGE = (unset),
	LC_ALL = (unset),
	LC_CTYPE = "UTF-8",
	LANG = "en_US.iso885915"
    are supported and installed on your system.
perl: warning: Falling back to the standard locale ("C").
Starting job 28532691 ("jobname") on c15-12 at Fri Nov 8 11:58:35 CET 2019
 running on    4 total cores
 distrk:  each k-point on    4 cores,    1 groups
 distr:  one band on    2 cores,    2 groups
 using from now: INCAR     
 vasp.5.4.4.18Apr17-6-g9f103f2a35 (build Jun 30 2017 11:15:00) complex          
  
 POSCAR found type information on POSCAR  Mo S 
 POSCAR found :  2 types and       3 ions
 scaLAPACK will be used
 LDA part: xc-table for Pade appr. of Perdew
 POSCAR, INCAR and KPOINTS ok, starting setup
 FFT: planning ...
 WAVECAR not read
 entering main loop
       N       E                     dE             d eps       ncg     rms          rms(c)
DAV:   1     0.142471021950E+03    0.14247E+03   -0.60854E+03   280   0.960E+02
DAV:   2    -0.556962885661E+01   -0.14804E+03   -0.14016E+03   502   0.177E+02
DAV:   3    -0.230257580450E+02   -0.17456E+02   -0.17293E+02   376   0.754E+01
DAV:   4    -0.234001758717E+02   -0.37442E+00   -0.37209E+00   354   0.138E+01
DAV:   5    -0.234090463635E+02   -0.88705E-02   -0.88683E-02   372   0.208E+00    0.689E+00
RMM:   6    -0.222485947926E+02    0.11605E+01   -0.54524E+00   294   0.124E+01    0.261E+00
RMM:   7    -0.218634007375E+02    0.38519E+00   -0.55191E-01   290   0.341E+00    0.150E+00
RMM:   8    -0.218035464923E+02    0.59854E-01   -0.23174E-01   307   0.251E+00    0.356E-01
RMM:   9    -0.217986991753E+02    0.48473E-02   -0.87129E-03   333   0.610E-01    0.970E-02
RMM:  10    -0.217979382711E+02    0.76090E-03   -0.17346E-03   334   0.224E-01    0.446E-02
RMM:  11    -0.217978469930E+02    0.91278E-04   -0.17222E-03   313   0.197E-01    0.570E-02
RMM:  12    -0.217976305308E+02    0.21646E-03   -0.56947E-04   302   0.135E-01    0.176E-02
RMM:  13    -0.217979019032E+02   -0.27137E-03   -0.15126E-04   283   0.707E-02    0.200E-02
RMM:  14    -0.217979383154E+02   -0.36412E-04   -0.26187E-05   250   0.275E-02    0.504E-03
RMM:  15    -0.217980491361E+02   -0.11082E-03   -0.11285E-05   194   0.174E-02    0.279E-03
RMM:  16    -0.217980812619E+02   -0.32126E-04   -0.45342E-06   185   0.943E-03    0.174E-03
RMM:  17    -0.217981245313E+02   -0.43269E-04   -0.32664E-06   164   0.791E-03    0.138E-03
RMM:  18    -0.217981322585E+02   -0.77272E-05   -0.43882E-07    81   0.403E-03
   1 F= -.22389041E+02 E0= -.22389041E+02  d E =0.000000E+00

Currently Loaded Modulefiles:
  1) Anaconda3/5.1.0       3) vesta/3.3.8           5) intel/2016.1
  2) gnuplot/5.0.4         4) imagemagick/6.7.9-0   6) vasp/5.4.1.Feb16

Job script resource usage:
       JobID  MaxVMSize     MaxRSS 
------------ ---------- ---------- 
28532691.ba+    216888K      2397K 

Job step resource usage:
       JobID    JobName  AllocCPUS  MaxVMSize     MaxRSS    Elapsed ExitCode 
------------ ---------- ---------- ---------- ---------- ---------- -------- 
28532691        jobname          4                         00:00:13      0:0 
28532691.0    pmi_proxy          1    279832K       522K   00:00:11      0:0 

Job 28532691 ("jobname") completed on c15-12 at Fri Nov 8 11:58:46 CET 2019
