<?xml version="1.0" encoding="ISO-8859-1"?>
<modeling>
 <generator>
  <i name="program" type="string">vasp </i>
  <i name="version" type="string">5.4.4.18Apr17-6-g9f103f2a35  </i>
  <i name="subversion" type="string">(build Jun 30 2017 11:15:00) complex            parallel </i>
  <i name="platform" type="string">STALLO_VASP_5.4.4 </i>
  <i name="date" type="string">2019 11 08 </i>
  <i name="time" type="string">11:58:36 </i>
 </generator>
 <incar>
  <i type="string" name="PREC">normal    ! low/normal/accurate</i>
  <i type="string" name="ALGO"> Fast      ! Algorithm for electronic re</i>
  <i type="int" name="ISPIN">     1</i>
  <i type="int" name="NELMIN">     4</i>
  <i name="EDIFF">      0.00001000</i>
  <i type="int" name="NSW">     0</i>
  <i name="ENCUT">    550.00000000</i>
  <i type="logical" name="LREAL"> F  </i>
  <i type="int" name="ISMEAR">    -5</i>
  <i name="SIGMA">      0.20000000</i>
  <i type="logical" name="LWAVE"> F  </i>
  <v type="int" name="KPOINT_BSE">    -1     0     0     0</v>
 </incar>
 <structure name="primitive_cell" >
  <crystal>
   <varray name="basis" >
    <v>       3.19031573       0.00000000       0.00000000 </v>
    <v>      -1.59515786       2.76289447       0.00000000 </v>
    <v>       0.00000000       0.00000000      26.87900430 </v>
   </varray>
   <i name="volume">    236.92513614 </i>
   <varray name="rec_basis" >
    <v>       0.31344860       0.18096963       0.00000000 </v>
    <v>       0.00000000       0.36193927       0.00000000 </v>
    <v>       0.00000000       0.00000000       0.03720376 </v>
   </varray>
  </crystal>
  <varray name="positions" >
   <v>       0.33333300      -0.33333300       0.13838872 </v>
   <v>      -0.33333400       0.33333300       0.19660830 </v>
   <v>      -0.33333300       0.33333300       0.08016914 </v>
  </varray>
 </structure>
 <varray name="primitive_index" >
  <v type="int" >        1 </v>
  <v type="int" >        3 </v>
  <v type="int" >        2 </v>
 </varray>
 <kpoints>
  <generation param="Gamma">
   <v type="int" name="divisions">       8        8        1 </v>
   <v name="usershift">      0.00000000       0.00000000       0.00000000 </v>
   <v name="genvec1">      0.12500000       0.00000000       0.00000000 </v>
   <v name="genvec2">      0.00000000       0.12500000       0.00000000 </v>
   <v name="genvec3">      0.00000000       0.00000000       1.00000000 </v>
   <v name="shift">      0.00000000       0.00000000       0.00000000 </v>
  </generation>
  <varray name="kpointlist" >
   <v>       0.00000000       0.00000000       0.00000000 </v>
   <v>       0.12500000       0.00000000       0.00000000 </v>
   <v>       0.25000000       0.00000000       0.00000000 </v>
   <v>       0.37500000       0.00000000       0.00000000 </v>
   <v>       0.50000000       0.00000000       0.00000000 </v>
   <v>       0.12500000       0.12500000       0.00000000 </v>
   <v>       0.25000000       0.12500000       0.00000000 </v>
   <v>       0.37500000       0.12500000       0.00000000 </v>
   <v>       0.25000000       0.25000000       0.00000000 </v>
   <v>       0.37500000       0.25000000       0.00000000 </v>
  </varray>
  <varray name="weights" >
   <v>       0.01562500 </v>
   <v>       0.09375000 </v>
   <v>       0.09375000 </v>
   <v>       0.09375000 </v>
   <v>       0.04687500 </v>
   <v>       0.09375000 </v>
   <v>       0.18750000 </v>
   <v>       0.18750000 </v>
   <v>       0.09375000 </v>
   <v>       0.09375000 </v>
  </varray>
  <varray name="tetrahedronlist"  type="int" >
   <v type="int" >       12        2        2        2        6 </v>
   <v type="int" >       12        1        2        2        2 </v>
   <v type="int" >        6        1        1        2        2 </v>
   <v type="int" >        6        2        2        6        6 </v>
   <v type="int" >       12        3        6        6        7 </v>
   <v type="int" >       12        2        3        6        6 </v>
   <v type="int" >       12        2        2        3        6 </v>
   <v type="int" >       12        3        6        7        7 </v>
   <v type="int" >       12        3        3        6        7 </v>
   <v type="int" >       12        2        3        3        6 </v>
   <v type="int" >       12        4        7        7        8 </v>
   <v type="int" >       12        3        4        7        7 </v>
   <v type="int" >       12        3        3        4        7 </v>
   <v type="int" >       12        4        7        8        8 </v>
   <v type="int" >       12        4        4        7        8 </v>
   <v type="int" >       12        3        4        4        7 </v>
   <v type="int" >       12        5        8        8        8 </v>
   <v type="int" >       12        4        5        8        8 </v>
   <v type="int" >       12        4        4        5        8 </v>
   <v type="int" >        6        5        5        8        8 </v>
   <v type="int" >       12        4        5        5        8 </v>
   <v type="int" >       12        7        7        7        9 </v>
   <v type="int" >       12        6        7        7        7 </v>
   <v type="int" >        6        6        6        7        7 </v>
   <v type="int" >        6        7        7        9        9 </v>
   <v type="int" >       12        8        9        9       10 </v>
   <v type="int" >       12        7        8        9        9 </v>
   <v type="int" >       12        7        7        8        9 </v>
   <v type="int" >       12        8        9       10       10 </v>
   <v type="int" >       12        8        8        9       10 </v>
   <v type="int" >       12        7        8        8        9 </v>
   <v type="int" >        6        8        8       10       10 </v>
   <v type="int" >       12        8        8        8       10 </v>
   <v type="int" >        6       10       10       10       10 </v>
   <v type="int" >       12        9       10       10       10 </v>
   <v type="int" >        6        9        9       10       10 </v>
  </varray>
  <i name="volumeweight">      0.00260417 </i>
 </kpoints>
 <parameters>
  <separator name="general" >
   <i type="string" name="SYSTEM">unknown system</i>
   <i type="logical" name="LCOMPAT"> F  </i>
  </separator>
  <separator name="electronic" >
   <i type="string" name="PREC">normal</i>
   <i name="ENMAX">    550.00000000</i>
   <i name="ENAUG">    345.27800000</i>
   <i name="EDIFF">      0.00001000</i>
   <i type="int" name="IALGO">    68</i>
   <i type="int" name="IWAVPR">    10</i>
   <i type="int" name="NBANDS">    14</i>
   <i name="NELECT">     18.00000000</i>
   <i type="int" name="TURBO">     0</i>
   <i type="int" name="IRESTART">     0</i>
   <i type="int" name="NREBOOT">     0</i>
   <i type="int" name="NMIN">     0</i>
   <i name="EREF">      0.00000000</i>
   <separator name="electronic smearing" >
    <i type="int" name="ISMEAR">    -5</i>
    <i name="SIGMA">      0.20000000</i>
    <i name="KSPACING">      0.50000000</i>
    <i type="logical" name="KGAMMA"> T  </i>
   </separator>
   <separator name="electronic projectors" >
    <i type="logical" name="LREAL"> F  </i>
    <v name="ROPT">      0.00000000      0.00000000</v>
    <i type="int" name="LMAXPAW">  -100</i>
    <i type="int" name="LMAXMIX">     2</i>
    <i type="logical" name="NLSPLINE"> F  </i>
   </separator>
   <separator name="electronic startup" >
    <i type="int" name="ISTART">     0</i>
    <i type="int" name="ICHARG">     2</i>
    <i type="int" name="INIWAV">     1</i>
   </separator>
   <separator name="electronic spin" >
    <i type="int" name="ISPIN">     1</i>
    <i type="logical" name="LNONCOLLINEAR"> F  </i>
    <v name="MAGMOM">      1.00000000      1.00000000      1.00000000</v>
    <i name="NUPDOWN">     -1.00000000</i>
    <i type="logical" name="LSORBIT"> F  </i>
    <v name="SAXIS">      0.00000000      0.00000000      1.00000000</v>
    <i type="logical" name="LSPIRAL"> F  </i>
    <v name="QSPIRAL">      0.00000000      0.00000000      0.00000000</v>
    <i type="logical" name="LZEROZ"> F  </i>
   </separator>
   <separator name="electronic exchange-correlation" >
    <i type="logical" name="LASPH"> F  </i>
    <i type="logical" name="LMETAGGA"> F  </i>
   </separator>
   <separator name="electronic convergence" >
    <i type="int" name="NELM">    60</i>
    <i type="int" name="NELMDL">    -5</i>
    <i type="int" name="NELMIN">     4</i>
    <i name="ENINI">    550.00000000</i>
    <separator name="electronic convergence detail" >
     <i type="logical" name="LDIAG"> T  </i>
     <i type="logical" name="LSUBROT"> F  </i>
     <i name="WEIMIN">      0.00000000</i>
     <i name="EBREAK">      0.00000018</i>
     <i name="DEPER">      0.30000000</i>
     <i type="int" name="NRMM">     4</i>
     <i name="TIME">      0.40000000</i>
    </separator>
   </separator>
   <separator name="electronic mixer" >
    <i name="AMIX">      0.40000000</i>
    <i name="BMIX">      1.00000000</i>
    <i name="AMIN">      0.10000000</i>
    <i name="AMIX_MAG">      1.60000000</i>
    <i name="BMIX_MAG">      1.00000000</i>
    <separator name="electronic mixer details" >
     <i type="int" name="IMIX">     4</i>
     <i type="logical" name="MIXFIRST"> F  </i>
     <i type="int" name="MAXMIX">   -45</i>
     <i name="WC">    100.00000000</i>
     <i type="int" name="INIMIX">     1</i>
     <i type="int" name="MIXPRE">     1</i>
     <i type="int" name="MREMOVE">     5</i>
    </separator>
   </separator>
   <separator name="electronic dipolcorrection" >
    <i type="logical" name="LDIPOL"> F  </i>
    <i type="logical" name="LMONO"> F  </i>
    <i type="int" name="IDIPOL">     0</i>
    <i name="EPSILON">      1.00000000</i>
    <v name="DIPOL">   -100.00000000   -100.00000000   -100.00000000</v>
    <i name="EFIELD">      0.00000000</i>
   </separator>
  </separator>
  <separator name="grids" >
   <i type="int" name="NGX">    18</i>
   <i type="int" name="NGY">    18</i>
   <i type="int" name="NGZ">   160</i>
   <i type="int" name="NGXF">    36</i>
   <i type="int" name="NGYF">    36</i>
   <i type="int" name="NGZF">   320</i>
   <i type="logical" name="ADDGRID"> F  </i>
  </separator>
  <separator name="ionic" >
   <i type="int" name="NSW">     0</i>
   <i type="int" name="IBRION">    -1</i>
   <i type="int" name="MDALGO">     0</i>
   <i type="int" name="ISIF">     2</i>
   <i name="PSTRESS">      0.00000000</i>
   <i name="EDIFFG">      0.00010000</i>
   <i type="int" name="NFREE">     0</i>
   <i name="POTIM">      0.50000000</i>
   <i name="SMASS">     -3.00000000</i>
   <i name="SCALEE">      1.00000000</i>
  </separator>
  <separator name="ionic md" >
   <i name="TEBEG">      0.00010000</i>
   <i name="TEEND">      0.00010000</i>
   <i type="int" name="NBLOCK">     1</i>
   <i type="int" name="KBLOCK">     1</i>
   <i type="int" name="NPACO">   256</i>
   <i name="APACO">     16.00000000</i>
  </separator>
  <separator name="symmetry" >
   <i type="int" name="ISYM">     2</i>
   <i name="SYMPREC">      0.00001000</i>
  </separator>
  <separator name="dos" >
   <i type="int" name="LORBIT">     0</i>
   <v name="RWIGS">     -1.00000000     -1.00000000</v>
   <i type="int" name="NEDOS">   301</i>
   <i name="EMIN">     10.00000000</i>
   <i name="EMAX">    -10.00000000</i>
   <i name="EFERMI">      0.00000000</i>
  </separator>
  <separator name="writing" >
   <i type="int" name="NWRITE">     2</i>
   <i type="logical" name="LWAVE"> F  </i>
   <i type="logical" name="LDOWNSAMPLE"> F  </i>
   <i type="logical" name="LCHARG"> T  </i>
   <i type="logical" name="LPARD"> F  </i>
   <i type="logical" name="LVTOT"> F  </i>
   <i type="logical" name="LVHAR"> F  </i>
   <i type="logical" name="LELF"> F  </i>
   <i type="logical" name="LOPTICS"> F  </i>
   <v name="STM">      0.00000000      0.00000000      0.00000000      0.00000000      0.00000000      0.00000000      0.00000000</v>
  </separator>
  <separator name="performance" >
   <i type="int" name="NPAR">     2</i>
   <i type="int" name="NSIM">     4</i>
   <i type="int" name="NBLK">    -1</i>
   <i type="logical" name="LPLANE"> T  </i>
   <i type="logical" name="LSCALAPACK"> T  </i>
   <i type="logical" name="LSCAAWARE"> F  </i>
   <i type="logical" name="LSCALU"> F  </i>
   <i type="logical" name="LASYNC"> F  </i>
   <i type="logical" name="LORBITALREAL"> F  </i>
  </separator>
  <separator name="miscellaneous" >
   <i type="int" name="IDIOT">     3</i>
   <i type="int" name="ISPECIAL">     0</i>
   <i type="logical" name="LMUSIC"> F  </i>
   <v name="POMASS">     95.94000000     32.06600000</v>
   <v name="DARWINR">      0.00000000      0.00000000</v>
   <v name="DARWINV">      1.00000000      1.00000000</v>
   <i type="logical" name="LCORR"> T  </i>
  </separator>
  <i type="logical" name="GGA_COMPAT"> T  </i>
  <i type="logical" name="LBERRY"> F  </i>
  <i type="int" name="ICORELEVEL">     0</i>
  <i type="logical" name="LDAU"> F  </i>
  <i type="int" name="I_CONSTRAINED_M">     0</i>
  <separator name="electronic exchange-correlation" >
   <i type="string" name="GGA">--</i>
   <i type="int" name="VOSKOWN">     0</i>
   <i type="logical" name="LHFCALC"> F  </i>
   <i type="string" name="PRECFOCK"></i>
   <i type="logical" name="LSYMGRAD"> F  </i>
   <i type="logical" name="LHFONE"> F  </i>
   <i type="logical" name="LRHFCALC"> F  </i>
   <i type="logical" name="LTHOMAS"> F  </i>
   <i type="logical" name="LMODELHF"> F  </i>
   <i name="ENCUT4O">     -1.00000000</i>
   <i type="int" name="EXXOEP">     0</i>
   <i type="int" name="FOURORBIT">     0</i>
   <i name="AEXX">      0.00000000</i>
   <i name="HFALPHA">      0.00000000</i>
   <i name="MCALPHA">      0.00000000</i>
   <i name="ALDAX">      1.00000000</i>
   <i name="AGGAX">      1.00000000</i>
   <i name="ALDAC">      1.00000000</i>
   <i name="AGGAC">      1.00000000</i>
   <i type="int" name="NKREDX">     1</i>
   <i type="int" name="NKREDY">     1</i>
   <i type="int" name="NKREDZ">     1</i>
   <i type="logical" name="SHIFTRED"> F  </i>
   <i type="logical" name="ODDONLY"> F  </i>
   <i type="logical" name="EVENONLY"> F  </i>
   <i type="int" name="LMAXFOCK">     0</i>
   <i type="int" name="NMAXFOCKAE">     0</i>
   <i type="logical" name="LFOCKAEDFT"> F  </i>
   <i name="HFSCREEN">      0.00000000</i>
   <i name="HFSCREENC">      0.00000000</i>
   <i type="int" name="NBANDSGWLOW">     0</i>
  </separator>
  <separator name="vdW DFT" >
   <i type="logical" name="LUSE_VDW"> F  </i>
   <i name="Zab_VDW">     -0.84910000</i>
   <i name="PARAM1">      0.12340000</i>
   <i name="PARAM2">      1.00000000</i>
   <i name="PARAM3">      0.00000000</i>
  </separator>
  <separator name="model GW" >
   <i type="int" name="MODEL_GW">     0</i>
   <i name="MODEL_EPS0">     47.38502723</i>
   <i name="MODEL_ALPHA">      1.00000000</i>
  </separator>
  <separator name="linear response parameters" >
   <i type="logical" name="LEPSILON"> F  </i>
   <i type="logical" name="LRPA"> F  </i>
   <i type="logical" name="LNABLA"> F  </i>
   <i type="logical" name="LVEL"> F  </i>
   <i type="int" name="KINTER">     0</i>
   <i name="CSHIFT">      0.10000000</i>
   <i name="OMEGAMAX">     -1.00000000</i>
   <i name="DEG_THRESHOLD">      0.00200000</i>
   <i name="RTIME">     -0.10000000</i>
   <i name="WPLASMAI">      0.00000000</i>
   <v name="DFIELD">      0.00000000      0.00000000      0.00000000</v>
   <v name="WPLASMA">      0.00000000      0.00000000      0.00000000      0.00000000      0.00000000      0.00000000      0.00000000      0.00000000      0.00000000</v>
  </separator>
  <separator name="orbital magnetization" >
   <i type="logical" name="NUCIND"> F  </i>
   <v name="MAGPOS">      0.00000000      0.00000000      0.00000000</v>
   <i type="logical" name="LNICSALL"> T  </i>
   <i type="logical" name="ORBITALMAG"> F  </i>
   <i type="logical" name="LMAGBLOCH"> F  </i>
   <i type="logical" name="LCHIMAG"> F  </i>
   <i type="logical" name="LGAUGE"> T  </i>
   <i type="int" name="MAGATOM">     0</i>
   <v name="MAGDIPOL">      0.00000000      0.00000000      0.00000000</v>
   <v name="AVECCONST">      0.00000000      0.00000000      0.00000000</v>
  </separator>
  <separator name="response functions" >
   <i type="logical" name="LADDER"> F  </i>
   <i type="logical" name="LRPAFORCE"> F  </i>
   <i type="logical" name="LFXC"> F  </i>
   <i type="logical" name="LHARTREE"> T  </i>
   <i type="int" name="IBSE">     0</i>
   <v type="int" name="KPOINT">    -1     0     0     0</v>
   <i type="logical" name="LTCTE"> F  </i>
   <i type="logical" name="LTETE"> F  </i>
   <i type="logical" name="LTRIPLET"> F  </i>
   <i type="logical" name="LFXCEPS"> F  </i>
   <i type="logical" name="LFXHEG"> F  </i>
   <i type="int" name="NATURALO">     2</i>
   <i type="logical" name="L2ORDER"> F  </i>
   <i type="logical" name="LMP2LT"> F  </i>
   <i type="logical" name="LUSEW"> F  </i>
   <i name="ENCUTGW">     -2.00000000</i>
   <i name="ENCUTGWSOFT">     -2.00000000</i>
   <i name="ENCUTLF">     -1.00000000</i>
   <i type="int" name="LMAXMP2">    -1</i>
   <i name="SCISSOR">      0.00000000</i>
   <i type="int" name="NOMEGA">     0</i>
   <i type="int" name="NOMEGAR">     0</i>
   <i type="int" name="NBANDSGW">    -1</i>
   <i type="int" name="NBANDSO">    -1</i>
   <i type="int" name="NBANDSV">    -1</i>
   <i type="int" name="NELM">     1</i>
   <i type="int" name="NELMHF">     1</i>
   <i type="int" name="DIM">     3</i>
   <i type="int" name="ANTIRES">     0</i>
   <i name="OMEGAMAX">    -30.00000000</i>
   <i name="OMEGAMIN">    -30.00000000</i>
   <i name="OMEGATL">   -200.00000000</i>
   <i type="int" name="OMEGAGRID">   140</i>
   <i name="CSHIFT">     -0.10000000</i>
   <i type="logical" name="SELFENERGY"> F  </i>
   <i type="logical" name="LSPECTRAL"> F  </i>
   <i type="logical" name="LSPECTRALGW"> F  </i>
   <i type="logical" name="LSINGLES"> F  </i>
   <i type="logical" name="LFERMIGW"> F  </i>
   <i type="logical" name="ODDONLYGW"> F  </i>
   <i type="logical" name="EVENONLYGW"> F  </i>
   <i type="int" name="NKREDLFX">     1</i>
   <i type="int" name="NKREDLFY">     1</i>
   <i type="int" name="NKREDLFZ">     1</i>
   <i type="int" name="MAXMEM">  2800</i>
   <i type="int" name="TELESCOPE">     0</i>
   <i type="int" name="TAUPAR">     1</i>
   <i type="int" name="OMEGAPAR">    -1</i>
   <i name="LAMBDA">      1.00000000</i>
  </separator>
  <separator name="External order field" >
   <i name="OFIELD_KAPPA">      0.00000000</i>
   <v name="OFIELD_K">      0.00000000      0.00000000      0.00000000</v>
   <i name="OFIELD_Q6_NEAR">      0.00000000</i>
   <i name="OFIELD_Q6_FAR">      0.00000000</i>
   <i name="OFIELD_A">      0.00000000</i>
  </separator>
 </parameters>
 <atominfo>
  <atoms>       3 </atoms>
  <types>       2 </types>
  <array name="atoms" >
   <dimension dim="1">ion</dimension>
   <field type="string">element</field>
   <field type="int">atomtype</field>
   <set>
    <rc><c>Mo</c><c>   1</c></rc>
    <rc><c>S </c><c>   2</c></rc>
    <rc><c>S </c><c>   2</c></rc>
   </set>
  </array>
  <array name="atomtypes" >
   <dimension dim="1">type</dimension>
   <field type="int">atomspertype</field>
   <field type="string">element</field>
   <field>mass</field>
   <field>valence</field>
   <field type="string">pseudopotential</field>
   <set>
    <rc><c>   1</c><c>Mo</c><c>     95.94000000</c><c>      6.00000000</c><c> PAW_PBE Mo 08Apr2002                   </c></rc>
    <rc><c>   2</c><c>S </c><c>     32.06600000</c><c>      6.00000000</c><c>  PAW_PBE S 17Jan2003                   </c></rc>
   </set>
  </array>
 </atominfo>
 <structure name="initialpos" >
  <crystal>
   <varray name="basis" >
    <v>       3.19031573       0.00000000       0.00000000 </v>
    <v>      -1.59515786       2.76289447       0.00000000 </v>
    <v>       0.00000000       0.00000000      26.87900430 </v>
   </varray>
   <i name="volume">    236.92513614 </i>
   <varray name="rec_basis" >
    <v>       0.31344860       0.18096963       0.00000000 </v>
    <v>       0.00000000       0.36193927       0.00000000 </v>
    <v>       0.00000000       0.00000000       0.03720376 </v>
   </varray>
  </crystal>
  <varray name="positions" >
   <v>       0.33333300       0.66666700       0.13838872 </v>
   <v>       0.66666700       0.33333300       0.08016914 </v>
   <v>       0.66666600       0.33333300       0.19660830 </v>
  </varray>
 </structure>
 <calculation>
  <scstep>
   <time name="dav">    0.31    0.32</time>
   <time name="total">    0.38    0.40</time>
   <energy>
    <i name="alphaZ">     12.51390764 </i>
    <i name="ewald">   4286.25630342 </i>
    <i name="hartreedc">  -4967.71356795 </i>
    <i name="XCdc">    -36.31055802 </i>
    <i name="pawpsdc">    406.88651198 </i>
    <i name="pawaedc">   -329.34073203 </i>
    <i name="eentropy">      0.00000000 </i>
    <i name="bandstr">     -0.98165087 </i>
    <i name="atom">    771.16080777 </i>
    <i name="e_fr_energy">    142.47102195 </i>
    <i name="e_wo_entrp">    142.47102195 </i>
    <i name="e_0_energy">    142.47102195 </i>
   </energy>
  </scstep>
  <scstep>
   <time name="dav">    0.48    0.48</time>
   <time name="total">    0.48    0.48</time>
   <energy>
    <i name="e_fr_energy">     -5.56962886 </i>
    <i name="e_wo_entrp">     -5.56962886 </i>
    <i name="e_0_energy">     -5.56962886 </i>
   </energy>
  </scstep>
  <scstep>
   <time name="dav">    0.38    0.39</time>
   <time name="total">    0.38    0.39</time>
   <energy>
    <i name="e_fr_energy">    -23.02575805 </i>
    <i name="e_wo_entrp">    -23.02575805 </i>
    <i name="e_0_energy">    -23.02575805 </i>
   </energy>
  </scstep>
  <scstep>
   <time name="dav">    0.36    0.36</time>
   <time name="total">    0.36    0.37</time>
   <energy>
    <i name="e_fr_energy">    -23.40017587 </i>
    <i name="e_wo_entrp">    -23.40017587 </i>
    <i name="e_0_energy">    -23.40017587 </i>
   </energy>
  </scstep>
  <scstep>
   <time name="dav">    0.38    0.38</time>
   <time name="total">    0.41    0.41</time>
   <energy>
    <i name="e_fr_energy">    -23.40904636 </i>
    <i name="e_wo_entrp">    -23.40904636 </i>
    <i name="e_0_energy">    -23.40904636 </i>
   </energy>
  </scstep>
  <scstep>
   <time name="diag">    0.06    0.06</time>
   <time name="diis">    0.26    0.26</time>
   <time name="orth">    0.01    0.01</time>
   <time name="total">    0.42    0.42</time>
   <energy>
    <i name="e_fr_energy">    -22.24859479 </i>
    <i name="e_wo_entrp">    -22.24859479 </i>
    <i name="e_0_energy">    -22.24859479 </i>
   </energy>
  </scstep>
  <scstep>
   <time name="diag">    0.06    0.06</time>
   <time name="diis">    0.26    0.26</time>
   <time name="orth">    0.00    0.01</time>
   <time name="total">    0.40    0.40</time>
   <energy>
    <i name="e_fr_energy">    -21.86340074 </i>
    <i name="e_wo_entrp">    -21.86340074 </i>
    <i name="e_0_energy">    -21.86340074 </i>
   </energy>
  </scstep>
  <scstep>
   <time name="diag">    0.06    0.06</time>
   <time name="diis">    0.27    0.27</time>
   <time name="orth">    0.01    0.01</time>
   <time name="total">    0.42    0.42</time>
   <energy>
    <i name="e_fr_energy">    -21.80354649 </i>
    <i name="e_wo_entrp">    -21.80354649 </i>
    <i name="e_0_energy">    -21.80354649 </i>
   </energy>
  </scstep>
  <scstep>
   <time name="diag">    0.06    0.06</time>
   <time name="diis">    0.30    0.30</time>
   <time name="orth">    0.01    0.01</time>
   <time name="total">    0.44    0.45</time>
   <energy>
    <i name="e_fr_energy">    -21.79869918 </i>
    <i name="e_wo_entrp">    -21.79869918 </i>
    <i name="e_0_energy">    -21.79869918 </i>
   </energy>
  </scstep>
  <scstep>
   <time name="diag">    0.06    0.06</time>
   <time name="diis">    0.29    0.29</time>
   <time name="orth">    0.00    0.01</time>
   <time name="total">    0.44    0.44</time>
   <energy>
    <i name="e_fr_energy">    -21.79793827 </i>
    <i name="e_wo_entrp">    -21.79793827 </i>
    <i name="e_0_energy">    -21.79793827 </i>
   </energy>
  </scstep>
  <scstep>
   <time name="diag">    0.06    0.06</time>
   <time name="diis">    0.28    0.28</time>
   <time name="orth">    0.00    0.01</time>
   <time name="total">    0.42    0.42</time>
   <energy>
    <i name="e_fr_energy">    -21.79784699 </i>
    <i name="e_wo_entrp">    -21.79784699 </i>
    <i name="e_0_energy">    -21.79784699 </i>
   </energy>
  </scstep>
  <scstep>
   <time name="diag">    0.06    0.06</time>
   <time name="diis">    0.27    0.27</time>
   <time name="orth">    0.01    0.01</time>
   <time name="total">    0.41    0.42</time>
   <energy>
    <i name="e_fr_energy">    -21.79763053 </i>
    <i name="e_wo_entrp">    -21.79763053 </i>
    <i name="e_0_energy">    -21.79763053 </i>
   </energy>
  </scstep>
  <scstep>
   <time name="diag">    0.06    0.06</time>
   <time name="diis">    0.24    0.24</time>
   <time name="orth">    0.01    0.01</time>
   <time name="total">    0.39    0.39</time>
   <energy>
    <i name="e_fr_energy">    -21.79790190 </i>
    <i name="e_wo_entrp">    -21.79790190 </i>
    <i name="e_0_energy">    -21.79790190 </i>
   </energy>
  </scstep>
  <scstep>
   <time name="diag">    0.06    0.06</time>
   <time name="diis">    0.23    0.23</time>
   <time name="orth">    0.00    0.01</time>
   <time name="total">    0.38    0.38</time>
   <energy>
    <i name="e_fr_energy">    -21.79793832 </i>
    <i name="e_wo_entrp">    -21.79793832 </i>
    <i name="e_0_energy">    -21.79793832 </i>
   </energy>
  </scstep>
  <scstep>
   <time name="diag">    0.06    0.06</time>
   <time name="diis">    0.19    0.19</time>
   <time name="orth">    0.00    0.01</time>
   <time name="total">    0.34    0.34</time>
   <energy>
    <i name="e_fr_energy">    -21.79804914 </i>
    <i name="e_wo_entrp">    -21.79804914 </i>
    <i name="e_0_energy">    -21.79804914 </i>
   </energy>
  </scstep>
  <scstep>
   <time name="diag">    0.06    0.06</time>
   <time name="diis">    0.19    0.19</time>
   <time name="orth">    0.00    0.01</time>
   <time name="total">    0.34    0.34</time>
   <energy>
    <i name="e_fr_energy">    -21.79808126 </i>
    <i name="e_wo_entrp">    -21.79808126 </i>
    <i name="e_0_energy">    -21.79808126 </i>
   </energy>
  </scstep>
  <scstep>
   <time name="diag">    0.06    0.06</time>
   <time name="diis">    0.17    0.17</time>
   <time name="orth">    0.00    0.01</time>
   <time name="total">    0.32    0.32</time>
   <energy>
    <i name="e_fr_energy">    -21.79812453 </i>
    <i name="e_wo_entrp">    -21.79812453 </i>
    <i name="e_0_energy">    -21.79812453 </i>
   </energy>
  </scstep>
  <scstep>
   <time name="diag">    0.06    0.06</time>
   <time name="diis">    0.15    0.15</time>
   <time name="orth">    0.01    0.01</time>
   <time name="total">    0.26    0.27</time>
   <energy>
    <i name="alphaZ">     12.51390764 </i>
    <i name="ewald">   4286.25630342 </i>
    <i name="hartreedc">  -4980.69845113 </i>
    <i name="XCdc">    -35.19797324 </i>
    <i name="pawpsdc">    471.95220707 </i>
    <i name="pawaedc">   -396.14347936 </i>
    <i name="eentropy">      0.00000000 </i>
    <i name="bandstr">   -151.64145444 </i>
    <i name="atom">    771.16080777 </i>
    <i name="e_fr_energy">    -21.79813226 </i>
    <i name="e_wo_entrp">    -21.79813226 </i>
    <i name="e_0_energy">    -21.79813226 </i>
   </energy>
  </scstep>
  <structure>
   <crystal>
    <varray name="basis" >
     <v>       3.19031573       0.00000000       0.00000000 </v>
     <v>      -1.59515786       2.76289447       0.00000000 </v>
     <v>       0.00000000       0.00000000      26.87900430 </v>
    </varray>
    <i name="volume">    236.92513614 </i>
    <varray name="rec_basis" >
     <v>       0.31344860       0.18096963       0.00000000 </v>
     <v>       0.00000000       0.36193927       0.00000000 </v>
     <v>       0.00000000       0.00000000       0.03720376 </v>
    </varray>
   </crystal>
   <varray name="positions" >
    <v>       0.33333300       0.66666700       0.13838872 </v>
    <v>       0.66666700       0.33333300       0.08016914 </v>
    <v>       0.66666600       0.33333300       0.19660830 </v>
   </varray>
  </structure>
  <varray name="forces" >
   <v>       0.00000000      -0.00000000      -0.00000000 </v>
   <v>      -0.00000000      -0.00000000       0.11407647 </v>
   <v>       0.00000000       0.00000000      -0.11407647 </v>
  </varray>
  <varray name="stress" >
   <v>      -0.93417886      -0.00000000       0.00000000 </v>
   <v>       0.00000000      -0.93417886       0.00000000 </v>
   <v>       0.00000000       0.00000000      -2.56021032 </v>
  </varray>
  <energy>
   <i name="e_fr_energy">    -22.38904132 </i>
   <i name="e_wo_entrp">    -22.38904132 </i>
   <i name="e_0_energy">      0.00000000 </i>
  </energy>
  <time name="totalsc">    7.91    8.39</time>
  <eigenvalues>
   <array>
    <dimension dim="1">band</dimension>
    <dimension dim="2">kpoint</dimension>
    <dimension dim="3">spin</dimension>
    <field>eigene</field>
    <field>occ</field>
    <set>
     <set comment="spin 1">
      <set comment="kpoint 1">
       <r>  -17.4635    1.0000 </r>
       <r>  -16.2554    1.0000 </r>
       <r>   -8.9843    1.0000 </r>
       <r>   -6.0235    1.0000 </r>
       <r>   -6.0235    1.0000 </r>
       <r>   -5.1622    1.0000 </r>
       <r>   -4.9180    1.0000 </r>
       <r>   -4.9179    1.0000 </r>
       <r>   -3.4418    1.0000 </r>
       <r>   -0.6702    0.0000 </r>
       <r>   -0.6702    0.0000 </r>
       <r>   -0.4465    0.0000 </r>
       <r>   -0.4465    0.0000 </r>
       <r>    1.9922    0.0000 </r>
      </set>
      <set comment="kpoint 2">
       <r>  -17.2494    1.0000 </r>
       <r>  -16.1531    1.0000 </r>
       <r>   -8.7398    1.0000 </r>
       <r>   -6.4869    1.0000 </r>
       <r>   -5.9703    1.0000 </r>
       <r>   -5.7891    1.0000 </r>
       <r>   -5.2537    1.0000 </r>
       <r>   -4.4847    1.0000 </r>
       <r>   -3.5803    1.0000 </r>
       <r>   -0.9504    0.0000 </r>
       <r>   -0.8845    0.0000 </r>
       <r>   -0.6832    0.0000 </r>
       <r>   -0.3155    0.0000 </r>
       <r>    2.4190    0.0000 </r>
      </set>
      <set comment="kpoint 3">
       <r>  -16.6806    1.0000 </r>
       <r>  -15.8843    1.0000 </r>
       <r>   -8.3737    1.0000 </r>
       <r>   -7.2135    1.0000 </r>
       <r>   -6.9511    1.0000 </r>
       <r>   -5.8887    1.0000 </r>
       <r>   -5.2020    1.0000 </r>
       <r>   -4.7363    1.0000 </r>
       <r>   -4.1482    1.0000 </r>
       <r>   -1.2745    0.0000 </r>
       <r>   -1.0979    0.0000 </r>
       <r>   -0.5558    0.0000 </r>
       <r>    0.3015    0.0000 </r>
       <r>    3.1798    0.0000 </r>
      </set>
      <set comment="kpoint 4">
       <r>  -16.0055    1.0000 </r>
       <r>  -15.5758    1.0000 </r>
       <r>   -8.8109    1.0000 </r>
       <r>   -7.8185    1.0000 </r>
       <r>   -7.3463    1.0000 </r>
       <r>   -6.3861    1.0000 </r>
       <r>   -5.1456    1.0000 </r>
       <r>   -4.6115    1.0000 </r>
       <r>   -4.3434    1.0000 </r>
       <r>   -1.2794    0.0000 </r>
       <r>   -1.0006    0.0000 </r>
       <r>    0.1628    0.0000 </r>
       <r>    0.6948    0.0000 </r>
       <r>    3.7016    0.0000 </r>
      </set>
      <set comment="kpoint 5">
       <r>  -15.6772    1.0000 </r>
       <r>  -15.4325    1.0000 </r>
       <r>   -9.1436    1.0000 </r>
       <r>   -8.1834    1.0000 </r>
       <r>   -7.4726    1.0000 </r>
       <r>   -6.5666    1.0000 </r>
       <r>   -5.2845    1.0000 </r>
       <r>   -4.3844    1.0000 </r>
       <r>   -4.0626    1.0000 </r>
       <r>   -1.2572    0.0000 </r>
       <r>   -0.7412    0.0000 </r>
       <r>    0.4614    0.0000 </r>
       <r>    0.8102    0.0000 </r>
       <r>    2.7408    0.0000 </r>
      </set>
      <set comment="kpoint 6">
       <r>  -16.8565    1.0000 </r>
       <r>  -15.9660    1.0000 </r>
       <r>   -8.3925    1.0000 </r>
       <r>   -7.0509    1.0000 </r>
       <r>   -6.5324    1.0000 </r>
       <r>   -6.0675    1.0000 </r>
       <r>   -5.4496    1.0000 </r>
       <r>   -4.3502    1.0000 </r>
       <r>   -3.9522    1.0000 </r>
       <r>   -1.3496    0.0000 </r>
       <r>   -0.9714    0.0000 </r>
       <r>   -0.9596    0.0000 </r>
       <r>    0.2794    0.0000 </r>
       <r>    2.9566    0.0000 </r>
      </set>
      <set comment="kpoint 7">
       <r>  -16.2230    1.0000 </r>
       <r>  -15.6675    1.0000 </r>
       <r>   -8.4552    1.0000 </r>
       <r>   -7.4777    1.0000 </r>
       <r>   -7.2145    1.0000 </r>
       <r>   -6.5718    1.0000 </r>
       <r>   -5.3502    1.0000 </r>
       <r>   -4.7124    1.0000 </r>
       <r>   -4.2358    1.0000 </r>
       <r>   -1.4330    0.0000 </r>
       <r>   -0.9846    0.0000 </r>
       <r>   -0.4896    0.0000 </r>
       <r>    0.7872    0.0000 </r>
       <r>    3.9272    0.0000 </r>
      </set>
      <set comment="kpoint 8">
       <r>  -15.6925    1.0000 </r>
       <r>  -15.4236    1.0000 </r>
       <r>   -8.8562    1.0000 </r>
       <r>   -8.2407    1.0000 </r>
       <r>   -7.3449    1.0000 </r>
       <r>   -6.5886    1.0000 </r>
       <r>   -5.3350    1.0000 </r>
       <r>   -5.1943    1.0000 </r>
       <r>   -3.9089    1.0000 </r>
       <r>   -1.2383    0.0000 </r>
       <r>   -0.7280    0.0000 </r>
       <r>    0.1321    0.0000 </r>
       <r>    0.8209    0.0000 </r>
       <r>    3.2676    0.0000 </r>
      </set>
      <set comment="kpoint 9">
       <r>  -15.7074    1.0000 </r>
       <r>  -15.4146    1.0000 </r>
       <r>   -8.4958    1.0000 </r>
       <r>   -8.2915    1.0000 </r>
       <r>   -7.0177    1.0000 </r>
       <r>   -6.6370    1.0000 </r>
       <r>   -6.3178    1.0000 </r>
       <r>   -5.0608    1.0000 </r>
       <r>   -3.9378    1.0000 </r>
       <r>   -1.2893    0.0000 </r>
       <r>   -0.6783    0.0000 </r>
       <r>   -0.3665    0.0000 </r>
       <r>    1.1089    0.0000 </r>
       <r>    4.1000    0.0000 </r>
      </set>
      <set comment="kpoint 10">
       <r>  -15.4726    1.0000 </r>
       <r>  -15.2954    1.0000 </r>
       <r>   -8.6759    1.0000 </r>
       <r>   -8.3268    1.0000 </r>
       <r>   -7.3021    1.0000 </r>
       <r>   -6.6395    1.0000 </r>
       <r>   -6.4093    1.0000 </r>
       <r>   -5.4471    1.0000 </r>
       <r>   -3.5704    1.0000 </r>
       <r>   -1.6150    0.0000 </r>
       <r>   -0.3081    0.0000 </r>
       <r>   -0.1277    0.0000 </r>
       <r>    1.2542    0.0000 </r>
       <r>    3.5106    0.0000 </r>
      </set>
     </set>
    </set>
   </array>
  </eigenvalues>
  <separator name="orbital magnetization" >
   <v name="MAGDIPOLOUT">      0.00000000      0.00000000      0.00000000</v>
  </separator>
  <dos>
   <i name="efermi">     -3.42243224 </i>
   <total>
    <array>
     <dimension dim="1">gridpoints</dimension>
     <dimension dim="2">spin</dimension>
     <field>energy</field>
     <field>total</field>
     <field>integrated</field>
     <set>
      <set comment="spin 1">
       <r>   -19.4635     0.0000     0.0000 </r>
       <r>   -19.3783     0.0000     0.0000 </r>
       <r>   -19.2931     0.0000     0.0000 </r>
       <r>   -19.2079     0.0000     0.0000 </r>
       <r>   -19.1227     0.0000     0.0000 </r>
       <r>   -19.0374     0.0000     0.0000 </r>
       <r>   -18.9522     0.0000     0.0000 </r>
       <r>   -18.8670     0.0000     0.0000 </r>
       <r>   -18.7818     0.0000     0.0000 </r>
       <r>   -18.6966     0.0000     0.0000 </r>
       <r>   -18.6114     0.0000     0.0000 </r>
       <r>   -18.5262     0.0000     0.0000 </r>
       <r>   -18.4410     0.0000     0.0000 </r>
       <r>   -18.3558     0.0000     0.0000 </r>
       <r>   -18.2705     0.0000     0.0000 </r>
       <r>   -18.1853     0.0000     0.0000 </r>
       <r>   -18.1001     0.0000     0.0000 </r>
       <r>   -18.0149     0.0000     0.0000 </r>
       <r>   -17.9297     0.0000     0.0000 </r>
       <r>   -17.8445     0.0000     0.0000 </r>
       <r>   -17.7593     0.0000     0.0000 </r>
       <r>   -17.6741     0.0000     0.0000 </r>
       <r>   -17.5888     0.0000     0.0000 </r>
       <r>   -17.5036     0.0000     0.0000 </r>
       <r>   -17.4184     0.1843     0.0042 </r>
       <r>   -17.3332     0.5327     0.0347 </r>
       <r>   -17.2480     0.4780     0.0944 </r>
       <r>   -17.1628     0.5174     0.1368 </r>
       <r>   -17.0776     0.5569     0.1826 </r>
       <r>   -16.9924     0.5964     0.2317 </r>
       <r>   -16.9072     0.6359     0.2842 </r>
       <r>   -16.8219     0.6622     0.3399 </r>
       <r>   -16.7367     0.6694     0.3966 </r>
       <r>   -16.6515     0.6853     0.4541 </r>
       <r>   -16.5663     0.7183     0.5139 </r>
       <r>   -16.4811     0.7514     0.5765 </r>
       <r>   -16.3959     0.7844     0.6419 </r>
       <r>   -16.3107     0.8174     0.7102 </r>
       <r>   -16.2255     1.3866     0.7893 </r>
       <r>   -16.1403     2.0613     0.9708 </r>
       <r>   -16.0550     2.3563     1.1590 </r>
       <r>   -15.9698     2.6761     1.3728 </r>
       <r>   -15.8846     2.8920     1.6103 </r>
       <r>   -15.7994     3.2302     1.8711 </r>
       <r>   -15.7142     3.5689     2.1608 </r>
       <r>   -15.6290     4.2221     2.6176 </r>
       <r>   -15.5438     4.2447     2.9752 </r>
       <r>   -15.4586     3.7673     3.3668 </r>
       <r>   -15.3733     3.3479     3.7770 </r>
       <r>   -15.2881     0.0000     4.0000 </r>
       <r>   -15.2029     0.0000     4.0000 </r>
       <r>   -15.1177     0.0000     4.0000 </r>
       <r>   -15.0325     0.0000     4.0000 </r>
       <r>   -14.9473     0.0000     4.0000 </r>
       <r>   -14.8621     0.0000     4.0000 </r>
       <r>   -14.7769     0.0000     4.0000 </r>
       <r>   -14.6917     0.0000     4.0000 </r>
       <r>   -14.6064     0.0000     4.0000 </r>
       <r>   -14.5212     0.0000     4.0000 </r>
       <r>   -14.4360     0.0000     4.0000 </r>
       <r>   -14.3508     0.0000     4.0000 </r>
       <r>   -14.2656     0.0000     4.0000 </r>
       <r>   -14.1804     0.0000     4.0000 </r>
       <r>   -14.0952     0.0000     4.0000 </r>
       <r>   -14.0100     0.0000     4.0000 </r>
       <r>   -13.9248     0.0000     4.0000 </r>
       <r>   -13.8395     0.0000     4.0000 </r>
       <r>   -13.7543     0.0000     4.0000 </r>
       <r>   -13.6691     0.0000     4.0000 </r>
       <r>   -13.5839     0.0000     4.0000 </r>
       <r>   -13.4987     0.0000     4.0000 </r>
       <r>   -13.4135     0.0000     4.0000 </r>
       <r>   -13.3283     0.0000     4.0000 </r>
       <r>   -13.2431     0.0000     4.0000 </r>
       <r>   -13.1578     0.0000     4.0000 </r>
       <r>   -13.0726     0.0000     4.0000 </r>
       <r>   -12.9874     0.0000     4.0000 </r>
       <r>   -12.9022     0.0000     4.0000 </r>
       <r>   -12.8170     0.0000     4.0000 </r>
       <r>   -12.7318     0.0000     4.0000 </r>
       <r>   -12.6466     0.0000     4.0000 </r>
       <r>   -12.5614     0.0000     4.0000 </r>
       <r>   -12.4762     0.0000     4.0000 </r>
       <r>   -12.3909     0.0000     4.0000 </r>
       <r>   -12.3057     0.0000     4.0000 </r>
       <r>   -12.2205     0.0000     4.0000 </r>
       <r>   -12.1353     0.0000     4.0000 </r>
       <r>   -12.0501     0.0000     4.0000 </r>
       <r>   -11.9649     0.0000     4.0000 </r>
       <r>   -11.8797     0.0000     4.0000 </r>
       <r>   -11.7945     0.0000     4.0000 </r>
       <r>   -11.7093     0.0000     4.0000 </r>
       <r>   -11.6240     0.0000     4.0000 </r>
       <r>   -11.5388     0.0000     4.0000 </r>
       <r>   -11.4536     0.0000     4.0000 </r>
       <r>   -11.3684     0.0000     4.0000 </r>
       <r>   -11.2832     0.0000     4.0000 </r>
       <r>   -11.1980     0.0000     4.0000 </r>
       <r>   -11.1128     0.0000     4.0000 </r>
       <r>   -11.0276     0.0000     4.0000 </r>
       <r>   -10.9423     0.0000     4.0000 </r>
       <r>   -10.8571     0.0000     4.0000 </r>
       <r>   -10.7719     0.0000     4.0000 </r>
       <r>   -10.6867     0.0000     4.0000 </r>
       <r>   -10.6015     0.0000     4.0000 </r>
       <r>   -10.5163     0.0000     4.0000 </r>
       <r>   -10.4311     0.0000     4.0000 </r>
       <r>   -10.3459     0.0000     4.0000 </r>
       <r>   -10.2607     0.0000     4.0000 </r>
       <r>   -10.1754     0.0000     4.0000 </r>
       <r>   -10.0902     0.0000     4.0000 </r>
       <r>   -10.0050     0.0000     4.0000 </r>
       <r>    -9.9198     0.0000     4.0000 </r>
       <r>    -9.8346     0.0000     4.0000 </r>
       <r>    -9.7494     0.0000     4.0000 </r>
       <r>    -9.6642     0.0000     4.0000 </r>
       <r>    -9.5790     0.0000     4.0000 </r>
       <r>    -9.4938     0.0000     4.0000 </r>
       <r>    -9.4085     0.0000     4.0000 </r>
       <r>    -9.3233     0.0000     4.0000 </r>
       <r>    -9.2381     0.0000     4.0000 </r>
       <r>    -9.1529     0.0000     4.0000 </r>
       <r>    -9.0677     0.4701     4.0178 </r>
       <r>    -8.9825     1.0035     4.0804 </r>
       <r>    -8.8973     1.7984     4.1998 </r>
       <r>    -8.8121     2.6345     4.3963 </r>
       <r>    -8.7268     2.8508     4.6374 </r>
       <r>    -8.6416     3.8176     4.9542 </r>
       <r>    -8.5564     3.1538     5.2512 </r>
       <r>    -8.4712     4.9436     5.5219 </r>
       <r>    -8.3860     3.8138     5.9765 </r>
       <r>    -8.3008     5.2604     6.1688 </r>
       <r>    -8.2156     2.7246     6.4996 </r>
       <r>    -8.1304     1.3273     6.6388 </r>
       <r>    -8.0452     1.1917     6.7461 </r>
       <r>    -7.9599     1.0562     6.8419 </r>
       <r>    -7.8747     0.9206     6.9261 </r>
       <r>    -7.7895     0.8328     6.9994 </r>
       <r>    -7.7043     0.8376     7.0706 </r>
       <r>    -7.6191     0.8423     7.1422 </r>
       <r>    -7.5339     0.8471     7.2142 </r>
       <r>    -7.4487     1.8895     7.3025 </r>
       <r>    -7.3635     4.8451     7.5894 </r>
       <r>    -7.2783     5.1705     8.1235 </r>
       <r>    -7.1930     5.1456     8.5438 </r>
       <r>    -7.1078     3.2541     8.9016 </r>
       <r>    -7.0226     1.4457     9.0995 </r>
       <r>    -6.9374     1.1867     9.2078 </r>
       <r>    -6.8522     1.0905     9.3048 </r>
       <r>    -6.7670     0.9943     9.3936 </r>
       <r>    -6.6818     0.8982     9.4743 </r>
       <r>    -6.5966    11.7252    10.0546 </r>
       <r>    -6.5113     3.8253    10.6372 </r>
       <r>    -6.4261     2.3883    10.9037 </r>
       <r>    -6.3409     2.3843    11.1871 </r>
       <r>    -6.2557     1.8379    11.3535 </r>
       <r>    -6.1705     1.7262    11.5054 </r>
       <r>    -6.0853     1.6145    11.6477 </r>
       <r>    -6.0001     3.5135    11.8137 </r>
       <r>    -5.9149     2.1541    12.0605 </r>
       <r>    -5.8297     1.6836    12.2370 </r>
       <r>    -5.7444     0.8721    12.3355 </r>
       <r>    -5.6592     0.8657    12.4095 </r>
       <r>    -5.5740     0.8593    12.4830 </r>
       <r>    -5.4888     0.8529    12.5560 </r>
       <r>    -5.4036     3.7264    12.7356 </r>
       <r>    -5.3184     9.3221    13.2480 </r>
       <r>    -5.2332     6.9990    13.9637 </r>
       <r>    -5.1480     1.8467    14.3487 </r>
       <r>    -5.0628     1.4984    14.4856 </r>
       <r>    -4.9775     1.4512    14.6111 </r>
       <r>    -4.8923     1.4761    14.7338 </r>
       <r>    -4.8071     1.6597    14.8674 </r>
       <r>    -4.7219     4.2979    15.0343 </r>
       <r>    -4.6367     3.2683    15.4305 </r>
       <r>    -4.5515     2.2953    15.6423 </r>
       <r>    -4.4663     2.7088    15.8461 </r>
       <r>    -4.3811     0.6692    15.9897 </r>
       <r>    -4.2959     1.3762    16.0327 </r>
       <r>    -4.2106     4.2294    16.2762 </r>
       <r>    -4.1254     3.7117    16.6120 </r>
       <r>    -4.0402     3.3937    16.9153 </r>
       <r>    -3.9550     3.0286    17.1889 </r>
       <r>    -3.8698     2.1127    17.4124 </r>
       <r>    -3.7846     1.7990    17.5791 </r>
       <r>    -3.6994     1.4853    17.7190 </r>
       <r>    -3.6142     1.1716    17.8322 </r>
       <r>    -3.5289     0.8522    17.9629 </r>
       <r>    -3.4437     0.0185    18.0000 </r>
       <r>    -3.3585     0.0000    18.0000 </r>
       <r>    -3.2733     0.0000    18.0000 </r>
       <r>    -3.1881     0.0000    18.0000 </r>
       <r>    -3.1029     0.0000    18.0000 </r>
       <r>    -3.0177     0.0000    18.0000 </r>
       <r>    -2.9325     0.0000    18.0000 </r>
       <r>    -2.8473     0.0000    18.0000 </r>
       <r>    -2.7620     0.0000    18.0000 </r>
       <r>    -2.6768     0.0000    18.0000 </r>
       <r>    -2.5916     0.0000    18.0000 </r>
       <r>    -2.5064     0.0000    18.0000 </r>
       <r>    -2.4212     0.0000    18.0000 </r>
       <r>    -2.3360     0.0000    18.0000 </r>
       <r>    -2.2508     0.0000    18.0000 </r>
       <r>    -2.1656     0.0000    18.0000 </r>
       <r>    -2.0804     0.0000    18.0000 </r>
       <r>    -1.9951     0.0000    18.0000 </r>
       <r>    -1.9099     0.0000    18.0000 </r>
       <r>    -1.8247     0.0000    18.0000 </r>
       <r>    -1.7395     0.0000    18.0000 </r>
       <r>    -1.6543     0.0000    18.0000 </r>
       <r>    -1.5691     0.6955    18.0604 </r>
       <r>    -1.4839     0.9180    18.1292 </r>
       <r>    -1.3987     5.8505    18.3587 </r>
       <r>    -1.3134     8.2484    18.9764 </r>
       <r>    -1.2282     0.9480    19.7093 </r>
       <r>    -1.1430     0.8013    19.7838 </r>
       <r>    -1.0578     3.6244    19.9054 </r>
       <r>    -0.9726     5.8702    20.5090 </r>
       <r>    -0.8874     5.6231    20.9360 </r>
       <r>    -0.8022     4.7822    21.3294 </r>
       <r>    -0.7170     4.0613    21.8270 </r>
       <r>    -0.6318     3.2888    22.1428 </r>
       <r>    -0.5465     2.4539    22.3870 </r>
       <r>    -0.4613     2.7156    22.5945 </r>
       <r>    -0.3761     2.6295    22.8148 </r>
       <r>    -0.2909     1.8722    23.0727 </r>
       <r>    -0.2057     2.3702    23.2535 </r>
       <r>    -0.1205     2.0359    23.5021 </r>
       <r>    -0.0353     1.9754    23.6730 </r>
       <r>     0.0499     1.9149    23.8388 </r>
       <r>     0.1351     1.7545    23.9990 </r>
       <r>     0.2204     1.9147    24.1723 </r>
       <r>     0.3056     1.6228    24.3192 </r>
       <r>     0.3908     1.2502    24.4416 </r>
       <r>     0.4760     0.9587    24.5328 </r>
       <r>     0.5612     1.0583    24.6188 </r>
       <r>     0.6464     1.1580    24.7132 </r>
       <r>     0.7316     3.0121    24.8484 </r>
       <r>     0.8168    13.9790    25.2835 </r>
       <r>     0.9021     1.8074    25.5102 </r>
       <r>     0.9873     1.4791    25.6502 </r>
       <r>     1.0725     1.1508    25.7622 </r>
       <r>     1.1577     1.1046    25.8532 </r>
       <r>     1.2429     1.2689    25.9543 </r>
       <r>     1.3281     0.0000    26.0000 </r>
       <r>     1.4133     0.0000    26.0000 </r>
       <r>     1.4985     0.0000    26.0000 </r>
       <r>     1.5837     0.0000    26.0000 </r>
       <r>     1.6690     0.0000    26.0000 </r>
       <r>     1.7542     0.0000    26.0000 </r>
       <r>     1.8394     0.0000    26.0000 </r>
       <r>     1.9246     0.0000    26.0000 </r>
       <r>     2.0098     0.0181    26.0002 </r>
       <r>     2.0950     0.1058    26.0054 </r>
       <r>     2.1802     0.1935    26.0182 </r>
       <r>     2.2654     0.2812    26.0384 </r>
       <r>     2.3506     0.3689    26.0661 </r>
       <r>     2.4359     0.3533    26.0997 </r>
       <r>     2.5211     0.3761    26.1307 </r>
       <r>     2.6063     0.3990    26.1638 </r>
       <r>     2.6915     0.4218    26.1987 </r>
       <r>     2.7767     0.4956    26.2366 </r>
       <r>     2.8619     0.6391    26.2849 </r>
       <r>     2.9471     0.7827    26.3455 </r>
       <r>     3.0323     0.8848    26.4167 </r>
       <r>     3.1176     0.9818    26.4963 </r>
       <r>     3.2028     1.0999    26.5843 </r>
       <r>     3.2880     1.6578    26.6936 </r>
       <r>     3.3732     1.6932    26.8364 </r>
       <r>     3.4584     1.7286    26.9822 </r>
       <r>     3.5436     2.0828    27.1728 </r>
       <r>     3.6288     2.1197    27.3518 </r>
       <r>     3.7140     2.0803    27.5335 </r>
       <r>     3.7992     1.5961    27.6902 </r>
       <r>     3.8845     1.1119    27.8055 </r>
       <r>     3.9697     1.3281    27.9135 </r>
       <r>     4.0549     0.4595    27.9896 </r>
       <r>     4.1401     0.0000    28.0000 </r>
       <r>     4.2253     0.0000    28.0000 </r>
       <r>     4.3105     0.0000    28.0000 </r>
       <r>     4.3957     0.0000    28.0000 </r>
       <r>     4.4809     0.0000    28.0000 </r>
       <r>     4.5661     0.0000    28.0000 </r>
       <r>     4.6514     0.0000    28.0000 </r>
       <r>     4.7366     0.0000    28.0000 </r>
       <r>     4.8218     0.0000    28.0000 </r>
       <r>     4.9070     0.0000    28.0000 </r>
       <r>     4.9922     0.0000    28.0000 </r>
       <r>     5.0774     0.0000    28.0000 </r>
       <r>     5.1626     0.0000    28.0000 </r>
       <r>     5.2478     0.0000    28.0000 </r>
       <r>     5.3331     0.0000    28.0000 </r>
       <r>     5.4183     0.0000    28.0000 </r>
       <r>     5.5035     0.0000    28.0000 </r>
       <r>     5.5887     0.0000    28.0000 </r>
       <r>     5.6739     0.0000    28.0000 </r>
       <r>     5.7591     0.0000    28.0000 </r>
       <r>     5.8443     0.0000    28.0000 </r>
       <r>     5.9295     0.0000    28.0000 </r>
       <r>     6.0147     0.0000    28.0000 </r>
       <r>     6.1000     0.0000    28.0000 </r>
      </set>
     </set>
    </array>
   </total>
  </dos>
 </calculation>
 <structure name="finalpos" >
  <crystal>
   <varray name="basis" >
    <v>       3.19031573       0.00000000       0.00000000 </v>
    <v>      -1.59515786       2.76289447       0.00000000 </v>
    <v>       0.00000000       0.00000000      26.87900430 </v>
   </varray>
   <i name="volume">    236.92513614 </i>
   <varray name="rec_basis" >
    <v>       0.31344860       0.18096963       0.00000000 </v>
    <v>       0.00000000       0.36193927       0.00000000 </v>
    <v>       0.00000000       0.00000000       0.03720376 </v>
   </varray>
  </crystal>
  <varray name="positions" >
   <v>       0.33333300       0.66666700       0.13838872 </v>
   <v>       0.66666700       0.33333300       0.08016914 </v>
   <v>       0.66666600       0.33333300       0.19660830 </v>
  </varray>
 </structure>
</modeling>
