    3    3    1    1
  0.9045187E+02  0.3189857E-09  0.3189857E-09  0.3079398E-08  0.5000000E-15
  1.000000000000000E-004
  CAR 
 unknown system                          
     18    140     14
 
  0.0000000E+00  0.0000000E+00  0.0000000E+00  0.7142857E-02
    1      -17.805572   1.000000
    2      -16.577188   1.000000
    3       -9.324826   1.000000
    4       -6.379721   1.000000
    5       -6.379715   1.000000
    6       -5.467538   1.000000
    7       -5.259376   1.000000
    8       -5.259344   1.000000
    9       -3.748186   1.000000
   10       -0.981912   0.000000
   11       -0.981910   0.000000
   12       -0.746826   0.000000
   13       -0.746747   0.000000
   14        1.673741   0.000000
 
  0.2631579E-01  0.0000000E+00  0.0000000E+00  0.7142857E-02
    1      -17.795820   1.000000
    2      -16.572571   1.000000
    3       -9.313167   1.000000
    4       -6.403194   1.000000
    5       -6.368888   1.000000
    6       -5.573953   1.000000
    7       -5.276484   1.000000
    8       -5.167279   1.000000
    9       -3.752868   1.000000
   10       -0.999617   0.000000
   11       -0.963386   0.000000
   12       -0.778615   0.000000
   13       -0.758887   0.000000
   14        1.688951   0.000000
 
  0.5263158E-01  0.0000000E+00  0.0000000E+00  0.7142857E-02
    1      -17.766685   1.000000
    2      -16.558788   1.000000
    3       -9.278628   1.000000
    4       -6.471727   1.000000
    5       -6.336622   1.000000
    6       -5.752211   1.000000
    7       -5.326424   1.000000
    8       -5.033453   1.000000
    9       -3.767892   1.000000
   10       -1.047144   0.000000
   11       -0.909466   0.000000
   12       -0.867336   0.000000
   13       -0.794278   0.000000
   14        1.751510   0.000000
 
  0.7894737E-01  0.0000000E+00  0.0000000E+00  0.7142857E-02
    1      -17.718592   1.000000
    2      -16.536052   1.000000
    3       -9.222609   1.000000
    4       -6.579972   1.000000
    5       -6.283565   1.000000
    6       -5.945366   1.000000
    7       -5.405251   1.000000
    8       -4.918837   1.000000
    9       -3.796109   1.000000
   10       -1.109321   0.000000
   11       -0.995410   0.000000
   12       -0.850298   0.000000
   13       -0.824809   0.000000
   14        1.836311   0.000000
 
  0.1052632E+00  0.0000000E+00  0.0000000E+00  0.7142857E-02
    1      -17.652245   1.000000
    2      -16.504724   1.000000
    3       -9.147674   1.000000
    4       -6.719937   1.000000
    5       -6.210808   1.000000
    6       -6.145133   1.000000
    7       -5.507421   1.000000
    8       -4.837068   1.000000
    9       -3.841811   1.000000
   10       -1.166279   0.000000
   11       -1.141600   0.000000
   12       -0.923113   0.000000
   13       -0.715950   0.000000
   14        2.001885   0.000000
 
  0.1315789E+00  0.0000000E+00  0.0000000E+00  0.7142857E-02
    1      -17.568626   1.000000
    2      -16.465307   1.000000
    3       -9.057878   1.000000
    4       -6.881879   1.000000
    5       -6.348742   1.000000
    6       -6.119909   1.000000
    7       -5.626792   1.000000
    8       -4.795425   1.000000
    9       -3.909693   1.000000
   10       -1.285396   0.000000
   11       -1.198906   0.000000
   12       -1.007918   0.000000
   13       -0.590346   0.000000
   14        2.080442   0.000000
 
  0.1578947E+00  0.0000000E+00  0.0000000E+00  0.7142857E-02
    1      -17.469044   1.000000
    2      -16.418470   1.000000
    3       -8.959453   1.000000
    4       -7.054835   1.000000
    5       -6.554849   1.000000
    6       -6.012905   1.000000
    7       -5.757365   1.000000
    8       -4.796231   1.000000
    9       -4.002969   1.000000
   10       -1.409700   0.000000
   11       -1.193588   0.000000
   12       -1.099674   0.000000
   13       -0.455415   0.000000
   14        2.220553   0.000000
 
  0.1842105E+00  0.0000000E+00  0.0000000E+00  0.7142857E-02
    1      -17.355146   1.000000
    2      -16.365060   1.000000
    3       -8.861824   1.000000
    4       -7.226464   1.000000
    5       -6.762588   1.000000
    6       -5.893780   1.000000
    7       -5.892331   1.000000
    8       -4.836027   1.000000
    9       -4.120932   1.000000
   10       -1.502718   0.000000
   11       -1.193386   0.000000
   12       -1.144755   0.000000
   13       -0.317810   0.000000
   14        2.405015   0.000000
 
  0.2105263E+00  0.0000000E+00  0.0000000E+00  0.7142857E-02
    1      -17.228914   1.000000
    2      -16.306110   1.000000
    3       -8.778854   1.000000
    4       -7.382438   1.000000
    5       -6.971021   1.000000
    6       -6.031340   1.000000
    7       -5.761348   1.000000
    8       -4.906332   1.000000
    9       -4.257100   1.000000
   10       -1.559086   0.000000
   11       -1.284387   0.000000
   12       -1.054665   0.000000
   13       -0.183275   0.000000
   14        2.557127   0.000000
 
  0.2368421E+00  0.0000000E+00  0.0000000E+00  0.7142857E-02
    1      -17.092724   1.000000
    2      -16.242850   1.000000
    3       -8.728899   1.000000
    4       -7.506703   1.000000
    5       -7.178783   1.000000
    6       -6.166282   1.000000
    7       -5.623472   1.000000
    8       -4.996139   1.000000
    9       -4.399203   1.000000
   10       -1.579374   0.000000
   11       -1.368508   0.000000
   12       -0.930968   0.000000
   13       -0.056183   0.000000
   14        2.748801   0.000000
 
  0.2631579E+00  0.0000000E+00  0.0000000E+00  0.7142857E-02
    1      -16.949416   1.000000
    2      -16.176722   1.000000
    3       -8.729422   1.000000
    4       -7.586665   1.000000
    5       -7.383819   1.000000
    6       -6.295460   1.000000
    7       -5.482795   1.000000
    8       -5.094657   1.000000
    9       -4.531068   1.000000
   10       -1.568091   0.000000
   11       -1.442245   0.000000
   12       -0.783899   0.000000
   13        0.060171   0.000000
   14        2.952778   0.000000
 
  0.2894737E+00  0.0000000E+00  0.0000000E+00  0.7142857E-02
    1      -16.802264   1.000000
    2      -16.109366   1.000000
    3       -8.784922   1.000000
    4       -7.624257   1.000000
    5       -7.583271   1.000000
    6       -6.416334   1.000000
    7       -5.343690   1.000000
    8       -5.193068   1.000000
    9       -4.635644   1.000000
   10       -1.531494   0.000000
   11       -1.502883   0.000000
   12       -0.624236   0.000000
   13        0.163760   0.000000
   14        3.159619   0.000000
 
  0.3157895E+00  0.0000000E+00  0.0000000E+00  0.7142857E-02
    1      -16.655061   1.000000
    2      -16.042625   1.000000
    3       -8.882238   1.000000
    4       -7.773581   1.000000
    5       -7.638367   1.000000
    6       -6.526871   1.000000
    7       -5.285098   1.000000
    8       -5.210655   1.000000
    9       -4.698775   1.000000
   10       -1.548722   0.000000
   11       -1.476077   0.000000
   12       -0.462294   0.000000
   13        0.253514   0.000000
   14        3.360736   0.000000
 
  0.3421053E+00  0.0000000E+00  0.0000000E+00  0.7142857E-02
    1      -16.512138   1.000000
    2      -15.978518   1.000000
    3       -9.001276   1.000000
    4       -7.950667   1.000000
    5       -7.650740   1.000000
    6       -6.625440   1.000000
    7       -5.366861   1.000000
    8       -5.088027   1.000000
    9       -4.713227   1.000000
   10       -1.579320   0.000000
   11       -1.407875   0.000000
   12       -0.307421   0.000000
   13        0.329224   0.000000
   14        3.518677   0.000000
 
  0.3684211E+00  0.0000000E+00  0.0000000E+00  0.7142857E-02
    1      -16.378289   1.000000
    2      -15.919174   1.000000
    3       -9.124972   1.000000
    4       -8.110174   1.000000
    5       -7.673326   1.000000
    6       -6.710756   1.000000
    7       -5.436301   1.000000
    8       -4.979607   1.000000
    9       -4.681571   1.000000
   10       -1.595661   0.000000
   11       -1.332426   0.000000
   12       -0.167589   0.000000
   13        0.391191   0.000000
   14        3.441949   0.000000
 
  0.3947368E+00  0.0000000E+00  0.0000000E+00  0.7142857E-02
    1      -16.258634   1.000000
    2      -15.866759   1.000000
    3       -9.241049   1.000000
    4       -8.247806   1.000000
    5       -7.706765   1.000000
    6       -6.781803   1.000000
    7       -5.492618   1.000000
    8       -4.888371   1.000000
    9       -4.615968   1.000000
   10       -1.600245   0.000000
   11       -1.255158   0.000000
   12       -0.048946   0.000000
   13        0.440187   0.000000
   14        3.164816   0.000000
 
  0.4210526E+00  0.0000000E+00  0.0000000E+00  0.7142857E-02
    1      -16.158422   1.000000
    2      -15.823364   1.000000
    3       -9.340577   1.000000
    4       -8.359564   1.000000
    5       -7.744794   1.000000
    6       -6.837804   1.000000
    7       -5.535787   1.000000
    8       -4.816320   1.000000
    9       -4.534824   1.000000
   10       -1.596845   0.000000
   11       -1.182078   0.000000
   12        0.044546   0.000000
   13        0.477081   0.000000
   14        2.875059   0.000000
 
  0.4473684E+00  0.0000000E+00  0.0000000E+00  0.7142857E-02
    1      -16.082580   1.000000
    2      -15.790848   1.000000
    3       -9.416786   1.000000
    4       -8.442035   1.000000
    5       -7.779157   1.000000
    6       -6.878191   1.000000
    7       -5.566152   1.000000
    8       -4.764528   1.000000
    9       -4.458287   1.000000
   10       -1.589915   0.000000
   11       -1.120417   0.000000
   12        0.111135   0.000000
   13        0.502701   0.000000
   14        2.637288   0.000000
 
  0.4736842E+00  0.0000000E+00  0.0000000E+00  0.7142857E-02
    1      -16.035220   1.000000
    2      -15.770700   1.000000
    3       -9.464641   1.000000
    4       -8.492625   1.000000
    5       -7.802784   1.000000
    6       -6.902574   1.000000
    7       -5.584150   1.000000
    8       -4.733419   1.000000
    9       -4.404171   1.000000
   10       -1.583697   0.000000
   11       -1.078437   0.000000
   12        0.150704   0.000000
   13        0.517772   0.000000
   14        2.481796   0.000000
 
  0.5000000E+00  0.0000000E+00  0.0000000E+00  0.7142857E-02
    1      -16.019116   1.000000
    2      -15.763870   1.000000
    3       -9.480975   1.000000
    4       -8.509670   1.000000
    5       -7.811169   1.000000
    6       -6.910723   1.000000
    7       -5.590108   1.000000
    8       -4.723078   1.000000
    9       -4.384685   1.000000
   10       -1.581255   0.000000
   11       -1.063438   0.000000
   12        0.163794   0.000000
   13        0.522747   0.000000
   14        2.427638   0.000000
 
  0.5000000E+00  0.0000000E+00  0.0000000E+00  0.7142857E-02
    1      -16.019116   1.000000
    2      -15.763870   1.000000
    3       -9.480975   1.000000
    4       -8.509670   1.000000
    5       -7.811169   1.000000
    6       -6.910723   1.000000
    7       -5.590108   1.000000
    8       -4.723078   1.000000
    9       -4.384685   1.000000
   10       -1.581255   0.000000
   11       -1.063438   0.000000
   12        0.163794   0.000000
   13        0.522749   0.000000
   14        2.427649   0.000000
 
  0.4912263E+00  0.1754211E-01  0.0000000E+00  0.7142857E-02
    1      -16.017684   1.000000
    2      -15.762888   1.000000
    3       -9.476468   1.000000
    4       -8.513251   1.000000
    5       -7.809619   1.000000
    6       -6.911469   1.000000
    7       -5.589210   1.000000
    8       -4.757278   1.000000
    9       -4.366186   1.000000
   10       -1.579152   0.000000
   11       -1.062018   0.000000
   12        0.169442   0.000000
   13        0.509004   0.000000
   14        2.433362   0.000000
 
  0.4824526E+00  0.3508421E-01  0.0000000E+00  0.7142857E-02
    1      -16.013427   1.000000
    2      -15.759958   1.000000
    3       -9.463001   1.000000
    4       -8.523961   1.000000
    5       -7.805007   1.000000
    6       -6.913443   1.000000
    7       -5.586739   1.000000
    8       -4.844445   1.000000
    9       -4.325480   1.000000
   10       -1.573571   0.000000
   11       -1.057302   0.000000
   12        0.185653   0.000000
   13        0.469735   0.000000
   14        2.450258   0.000000
 
  0.4736789E+00  0.5262632E-01  0.0000000E+00  0.7142857E-02
    1      -16.006419   1.000000
    2      -15.755140   1.000000
    3       -9.440654   1.000000
    4       -8.541686   1.000000
    5       -7.797455   1.000000
    6       -6.915934   1.000000
    7       -5.583344   1.000000
    8       -4.964093   1.000000
    9       -4.281041   1.000000
   10       -1.566584   0.000000
   11       -1.047973   0.000000
   12        0.208927   0.000000
   13        0.411676   0.000000
   14        2.477546   0.000000
 
  0.4649053E+00  0.7016842E-01  0.0000000E+00  0.7142857E-02
    1      -15.996778   1.000000
    2      -15.748524   1.000000
    3       -9.409543   1.000000
    4       -8.566194   1.000000
    5       -7.787157   1.000000
    6       -6.917904   1.000000
    7       -5.579967   1.000000
    8       -5.105767   1.000000
    9       -4.240189   1.000000
   10       -1.561320   0.000000
   11       -1.032025   0.000000
   12        0.222686   0.000000
   13        0.355787   0.000000
   14        2.514071   0.000000
 
  0.4561316E+00  0.8771053E-01  0.0000000E+00  0.7142857E-02
    1      -15.984687   1.000000
    2      -15.740249   1.000000
    3       -9.369860   1.000000
    4       -8.597117   1.000000
    5       -7.774385   1.000000
    6       -6.918187   1.000000
    7       -5.577755   1.000000
    8       -5.264138   1.000000
    9       -4.204368   1.000000
   10       -1.561332   0.000000
   11       -1.007273   0.000000
   12        0.178079   0.000000
   13        0.355430   0.000000
   14        2.558602   0.000000
 
  0.4473579E+00  0.1052526E+00  0.0000000E+00  0.7142857E-02
    1      -15.970370   1.000000
    2      -15.730480   1.000000
    3       -9.321839   1.000000
    4       -8.633869   1.000000
    5       -7.759481   1.000000
    6       -6.915628   1.000000
    7       -5.577895   1.000000
    8       -5.435600   1.000000
    9       -4.172803   1.000000
   10       -1.569684   0.000000
   11       -0.972105   0.000000
   12        0.087653   0.000000
   13        0.402026   0.000000
   14        2.609943   0.000000
 
  0.4385842E+00  0.1227947E+00  0.0000000E+00  0.7142857E-02
    1      -15.954107   1.000000
    2      -15.719427   1.000000
    3       -9.265764   1.000000
    4       -8.675663   1.000000
    5       -7.742871   1.000000
    6       -6.909271   1.000000
    7       -5.617144   1.000000
    8       -5.581510   1.000000
    9       -4.143966   1.000000
   10       -1.588184   0.000000
   11       -0.926136   0.000000
   12       -0.014574   0.000000
   13        0.464608   0.000000
   14        2.667075   0.000000
 
  0.4298105E+00  0.1403368E+00  0.0000000E+00  0.7142857E-02
    1      -15.936218   1.000000
    2      -15.707330   1.000000
    3       -9.201990   1.000000
    4       -8.721488   1.000000
    5       -7.725043   1.000000
    6       -6.898418   1.000000
    7       -5.805973   1.000000
    8       -5.589536   1.000000
    9       -4.116142   1.000000
   10       -1.617191   0.000000
   11       -0.870302   0.000000
   12       -0.118047   0.000000
   13        0.534686   0.000000
   14        2.729214   0.000000
 
  0.4210368E+00  0.1578789E+00  0.0000000E+00  0.7142857E-02
    1      -15.917086   1.000000
    2      -15.694469   1.000000
    3       -9.130935   1.000000
    4       -8.770161   1.000000
    5       -7.706580   1.000000
    6       -6.882708   1.000000
    7       -5.999385   1.000000
    8       -5.602680   1.000000
    9       -4.087766   1.000000
   10       -1.655985   0.000000
   11       -0.806452   0.000000
   12       -0.217969   0.000000
   13        0.608581   0.000000
   14        2.795764   0.000000
 
  0.4122632E+00  0.1754211E+00  0.0000000E+00  0.7142857E-02
    1      -15.897117   1.000000
    2      -15.681142   1.000000
    3       -9.053055   1.000000
    4       -8.820348   1.000000
    5       -7.688170   1.000000
    6       -6.862076   1.000000
    7       -6.194676   1.000000
    8       -5.621323   1.000000
    9       -4.057565   1.000000
   10       -1.703203   0.000000
   11       -0.736846   0.000000
   12       -0.311292   0.000000
   13        0.683581   0.000000
   14        2.866279   0.000000
 
  0.4034895E+00  0.1929632E+00  0.0000000E+00  0.7142857E-02
    1      -15.876782   1.000000
    2      -15.667679   1.000000
    3       -8.968919   1.000000
    4       -8.870637   1.000000
    5       -7.670677   1.000000
    6       -6.836783   1.000000
    7       -6.389054   1.000000
    8       -5.645505   1.000000
    9       -4.024695   1.000000
   10       -1.757157   0.000000
   11       -0.663854   0.000000
   12       -0.395929   0.000000
   13        0.757254   0.000000
   14        2.940368   0.000000
 
  0.3947158E+00  0.2105053E+00  0.0000000E+00  0.7142857E-02
    1      -15.856590   1.000000
    2      -15.654434   1.000000
    3       -8.919595   1.000000
    4       -8.879215   1.000000
    5       -7.655300   1.000000
    6       -6.807390   1.000000
    7       -6.579415   1.000000
    8       -5.674850   1.000000
    9       -3.988836   1.000000
   10       -1.815917   0.000000
   11       -0.589848   0.000000
   12       -0.470475   0.000000
   13        0.827349   0.000000
   14        3.017592   0.000000
 
  0.3859421E+00  0.2280474E+00  0.0000000E+00  0.7142857E-02
    1      -15.837086   1.000000
    2      -15.641781   1.000000
    3       -8.965809   1.000000
    4       -8.784812   1.000000
    5       -7.643850   1.000000
    6       -6.774803   1.000000
    7       -6.761969   1.000000
    8       -5.708531   1.000000
    9       -3.950283   1.000000
   10       -1.877286   0.000000
   11       -0.534093   0.000000
   12       -0.517210   0.000000
   13        0.891796   0.000000
   14        3.097415   0.000000
 
  0.3771684E+00  0.2455895E+00  0.0000000E+00  0.7142857E-02
    1      -15.818859   1.000000
    2      -15.630092   1.000000
    3       -9.007921   1.000000
    4       -8.686902   1.000000
    5       -7.639367   1.000000
    6       -6.931491   1.000000
    7       -6.740270   1.000000
    8       -5.745187   1.000000
    9       -3.910052   1.000000
   10       -1.938711   0.000000
   11       -0.586424   0.000000
   12       -0.448379   0.000000
   13        0.948773   0.000000
   14        3.178958   0.000000
 
  0.3683947E+00  0.2631316E+00  0.0000000E+00  0.7142857E-02
    1      -15.802511   1.000000
    2      -15.619747   1.000000
    3       -9.044666   1.000000
    4       -8.587258   1.000000
    5       -7.647087   1.000000
    6       -7.080009   1.000000
    7       -6.705530   1.000000
    8       -5.782817   1.000000
    9       -3.869951   1.000000
   10       -1.997194   0.000000
   11       -0.627525   0.000000
   12       -0.385916   0.000000
   13        0.996782   0.000000
   14        3.260829   0.000000
 
  0.3596211E+00  0.2806737E+00  0.0000000E+00  0.7142857E-02
    1      -15.788679   1.000000
    2      -15.611126   1.000000
    3       -9.074884   1.000000
    4       -8.488930   1.000000
    5       -7.674387   1.000000
    6       -7.196254   1.000000
    7       -6.672929   1.000000
    8       -5.818690   1.000000
    9       -3.832630   1.000000
   10       -2.049253   0.000000
   11       -0.657830   0.000000
   12       -0.332537   0.000000
   13        1.034692   0.000000
   14        3.340318   0.000000
 
  0.3508474E+00  0.2982158E+00  0.0000000E+00  0.7142857E-02
    1      -15.778006   1.000000
    2      -15.604577   1.000000
    3       -9.097522   1.000000
    4       -8.397872   1.000000
    5       -7.723983   1.000000
    6       -7.270784   1.000000
    7       -6.645444   1.000000
    8       -5.849282   1.000000
    9       -3.801472   1.000000
   10       -2.090998   0.000000
   11       -0.678076   0.000000
   12       -0.291063   0.000000
   13        1.061811   0.000000
   14        3.411955   0.000000
 
  0.3420737E+00  0.3157579E+00  0.0000000E+00  0.7142857E-02
    1      -15.771141   1.000000
    2      -15.600434   1.000000
    3       -9.111674   1.000000
    4       -8.326686   1.000000
    5       -7.779731   1.000000
    6       -7.306474   1.000000
    7       -6.626594   1.000000
    8       -5.870483   1.000000
    9       -3.780264   1.000000
   10       -2.118454   0.000000
   11       -0.689288   0.000000
   12       -0.264312   0.000000
   13        1.077886   0.000000
   14        3.465020   0.000000
 
  0.3333000E+00  0.3333000E+00  0.0000000E+00  0.7142857E-02
    1      -15.768709   1.000000
    2      -15.598991   1.000000
    3       -9.116553   1.000000
    4       -8.297832   1.000000
    5       -7.806142   1.000000
    6       -7.315777   1.000000
    7       -6.619724   1.000000
    8       -5.878279   1.000000
    9       -3.772538   1.000000
   10       -2.128190   0.000000
   11       -0.692718   0.000000
   12       -0.254873   0.000000
   13        1.083158   0.000000
   14        3.492199   0.000000
 
  0.3333000E+00  0.3333000E+00  0.0000000E+00  0.7142857E-02
    1      -15.768709   1.000000
    2      -15.598991   1.000000
    3       -9.116553   1.000000
    4       -8.297832   1.000000
    5       -7.806142   1.000000
    6       -7.315777   1.000000
    7       -6.619724   1.000000
    8       -5.878279   1.000000
    9       -3.772538   1.000000
   10       -2.128190   0.000000
   11       -0.692718   0.000000
   12       -0.254873   0.000000
   13        1.083143   0.000000
   14        3.484340   0.000000
 
  0.3157579E+00  0.3157579E+00  0.0000000E+00  0.7142857E-02
    1      -15.779550   1.000000
    2      -15.605191   1.000000
    3       -9.095947   1.000000
    4       -8.394319   1.000000
    5       -7.706681   1.000000
    6       -7.290775   1.000000
    7       -6.647970   1.000000
    8       -5.845010   1.000000
    9       -3.805784   1.000000
   10       -2.088086   0.000000
   11       -0.682195   0.000000
   12       -0.295477   0.000000
   13        1.064014   0.000000
   14        3.447850   0.000000
 
  0.2982158E+00  0.2982158E+00  0.0000000E+00  0.7142857E-02
    1      -15.814498   1.000000
    2      -15.624523   1.000000
    3       -9.032338   1.000000
    4       -8.559134   1.000000
    5       -7.532160   1.000000
    6       -7.216949   1.000000
    7       -6.720923   1.000000
    8       -5.753881   1.000000
    9       -3.899147   1.000000
   10       -1.978958   0.000000
   11       -0.660185   0.000000
   12       -0.416924   0.000000
   13        1.013899   0.000000
   14        3.442148   0.000000
 
  0.2806737E+00  0.2806737E+00  0.0000000E+00  0.7142857E-02
    1      -15.876160   1.000000
    2      -15.657395   1.000000
    3       -8.924432   1.000000
    4       -8.701084   1.000000
    5       -7.410071   1.000000
    6       -7.061675   1.000000
    7       -6.812895   1.000000
    8       -5.626679   1.000000
    9       -4.029657   1.000000
   10       -1.833412   0.000000
   11       -0.641949   0.000000
   12       -0.604632   0.000000
   13        0.945747   0.000000
   14        3.516666   0.000000
 
  0.2631316E+00  0.2631316E+00  0.0000000E+00  0.7142857E-02
    1      -15.965198   1.000000
    2      -15.703274   1.000000
    3       -8.797907   1.000000
    4       -8.772955   1.000000
    5       -7.359444   1.000000
    6       -6.902762   1.000000
    7       -6.836758   1.000000
    8       -5.481932   1.000000
    9       -4.170823   1.000000
   10       -1.690753   0.000000
   11       -0.828643   0.000000
   12       -0.642355   0.000000
   13        0.872524   0.000000
   14        3.660195   0.000000
 
  0.2455895E+00  0.2455895E+00  0.0000000E+00  0.7142857E-02
    1      -16.080181   1.000000
    2      -15.760812   1.000000
    3       -8.845320   1.000000
    4       -8.580536   1.000000
    5       -7.350496   1.000000
    6       -6.976949   1.000000
    7       -6.589330   1.000000
    8       -5.331888   1.000000
    9       -4.302372   1.000000
   10       -1.590598   0.000000
   11       -1.046768   0.000000
   12       -0.672278   0.000000
   13        0.802594   0.000000
   14        3.841351   0.000000
 
  0.2280474E+00  0.2280474E+00  0.0000000E+00  0.7142857E-02
    1      -16.217763   1.000000
    2      -15.828058   1.000000
    3       -8.846344   1.000000
    4       -8.351584   1.000000
    5       -7.372840   1.000000
    6       -7.026612   1.000000
    7       -6.342723   1.000000
    8       -5.185091   1.000000
    9       -4.412245   1.000000
   10       -1.580904   0.000000
   11       -1.197891   0.000000
   12       -0.734750   0.000000
   13        0.735822   0.000000
   14        3.984218   0.000000
 
  0.2105053E+00  0.2105053E+00  0.0000000E+00  0.7142857E-02
    1      -16.373087   1.000000
    2      -15.902665   1.000000
    3       -8.809225   1.000000
    4       -8.092367   1.000000
    5       -7.421427   1.000000
    6       -7.045257   1.000000
    7       -6.110866   1.000000
    8       -5.048083   1.000000
    9       -4.495247   1.000000
   10       -1.668728   0.000000
   11       -1.252803   0.000000
   12       -0.824145   0.000000
   13        0.663841   0.000000
   14        3.916852   0.000000
 
  0.1929632E+00  0.1929632E+00  0.0000000E+00  0.7142857E-02
    1      -16.540504   1.000000
    2      -15.982126   1.000000
    3       -8.748138   1.000000
    4       -7.811883   1.000000
    5       -7.484941   1.000000
    6       -7.026928   1.000000
    7       -5.910176   1.000000
    8       -4.926159   1.000000
    9       -4.547516   1.000000
   10       -1.764079   0.000000
   11       -1.274639   0.000000
   12       -0.929341   0.000000
   13        0.574964   0.000000
   14        3.669762   0.000000
 
  0.1754211E+00  0.1754211E+00  0.0000000E+00  0.7142857E-02
    1      -16.714106   1.000000
    2      -16.063921   1.000000
    3       -8.685444   1.000000
    4       -7.540792   1.000000
    5       -7.524312   1.000000
    6       -6.963139   1.000000
    7       -5.765363   1.000000
    8       -4.823584   1.000000
    9       -4.557535   1.000000
   10       -1.809735   0.000000
   11       -1.296430   0.000000
   12       -1.037721   0.000000
   13        0.460092   0.000000
   14        3.384570   0.000000
 
  0.1578789E+00  0.1578789E+00  0.0000000E+00  0.7142857E-02
    1      -16.888171   1.000000
    2      -16.145641   1.000000
    3       -8.651968   1.000000
    4       -7.555839   1.000000
    5       -7.254264   1.000000
    6       -6.837475   1.000000
    7       -5.703260   1.000000
    8       -4.743709   1.000000
    9       -4.507357   1.000000
   10       -1.795445   0.000000
   11       -1.313419   0.000000
   12       -1.137531   0.000000
   13        0.316001   0.000000
   14        3.174457   0.000000
 
  0.1403368E+00  0.1403368E+00  0.0000000E+00  0.7142857E-02
    1      -17.057429   1.000000
    2      -16.225013   1.000000
    3       -8.673717   1.000000
    4       -7.501465   1.000000
    5       -7.029482   1.000000
    6       -6.632820   1.000000
    7       -5.728079   1.000000
    8       -4.689106   1.000000
    9       -4.396222   1.000000
   10       -1.732075   0.000000
   11       -1.310230   0.000000
   12       -1.218568   0.000000
   13        0.145614   0.000000
   14        2.853167   0.000000
 
  0.1227947E+00  0.1227947E+00  0.0000000E+00  0.7142857E-02
    1      -17.217227   1.000000
    2      -16.299978   1.000000
    3       -8.750237   1.000000
    4       -7.376771   1.000000
    5       -6.839788   1.000000
    6       -6.372289   1.000000
    7       -5.813933   1.000000
    8       -4.661831   1.000000
    9       -4.250726   1.000000
   10       -1.637160   0.000000
   11       -1.272290   0.000000
   12       -1.272152   0.000000
   13       -0.043764   0.000000
   14        2.598729   0.000000
 
  0.1052526E+00  0.1052526E+00  0.0000000E+00  0.7142857E-02
    1      -17.363506   1.000000
    2      -16.368700   1.000000
    3       -8.859650   1.000000
    4       -7.204317   1.000000
    5       -6.653844   1.000000
    6       -6.101992   1.000000
    7       -5.928736   1.000000
    8       -4.663720   1.000000
    9       -4.103221   1.000000
   10       -1.521867   0.000000
   11       -1.292214   0.000000
   12       -1.195443   0.000000
   13       -0.241524   0.000000
   14        2.384650   0.000000
 
  0.8771053E-01  0.8771053E-01  0.0000000E+00  0.7142857E-02
    1      -17.492862   1.000000
    2      -16.429569   1.000000
    3       -8.979222   1.000000
    4       -7.010050   1.000000
    5       -6.457265   1.000000
    6       -6.049060   1.000000
    7       -5.851864   1.000000
    8       -4.696627   1.000000
    9       -3.976213   1.000000
   10       -1.385843   0.000000
   11       -1.275256   0.000000
   12       -1.092700   0.000000
   13       -0.436080   0.000000
   14        2.187712   0.000000
 
  0.7016842E-01  0.7016842E-01  0.0000000E+00  0.7142857E-02
    1      -17.602472   1.000000
    2      -16.481227   1.000000
    3       -9.092823   1.000000
    4       -6.815949   1.000000
    5       -6.248103   1.000000
    6       -6.160181   1.000000
    7       -5.638557   1.000000
    8       -4.762197   1.000000
    9       -3.879938   1.000000
   10       -1.228285   0.000000
   11       -1.223892   0.000000
   12       -0.984023   0.000000
   13       -0.615336   0.000000
   14        2.022789   0.000000
 
  0.5262632E-01  0.5262632E-01  0.0000000E+00  0.7142857E-02
    1      -17.690037   1.000000
    2      -16.522559   1.000000
    3       -9.189878   1.000000
    4       -6.640780   1.000000
    5       -6.253149   1.000000
    6       -6.029874   1.000000
    7       -5.470992   1.000000
    8       -4.861187   1.000000
    9       -3.814656   1.000000
   10       -1.148522   0.000000