unknown system                          
   1.00000000000000     
     3.189857    0.000000    0.000000
    -1.594928    2.762497    0.000000
     0.000000    0.000000   30.793979
   Mo   S 
     1     2
Direct
  0.333333  0.666667  0.120462
  0.666667  0.333333  0.069840
  0.666666  0.333333  0.171084
 
   24   24  216
 0.13930E-01 0.14191E-01 0.15226E-01 0.17641E-01 0.22187E-01 0.29646E-01 0.40688E-01 0.55650E-01 0.74085E-01 0.94366E-01
 0.11353     0.12761     0.13284     0.12762     0.11355     0.94378E-01 0.74088E-01 0.55645E-01 0.40679E-01 0.29636E-01
 0.22179E-01 0.17635E-01 0.15221E-01 0.14188E-01 0.14188E-01 0.14190E-01 0.15435E-01 0.18459E-01 0.24228E-01 0.34014E-01
 0.49101E-01 0.70287E-01 0.97225E-01 0.12799     0.15894     0.18484     0.19995     0.19997     0.18486     0.15896    
 0.12801     0.97222E-01 0.70272E-01 0.49084E-01 0.33999E-01 0.24217E-01 0.18451E-01 0.15430E-01 0.15221E-01 0.14259E-01
 0.15224E-01 0.18458E-01 0.24994E-01 0.36540E-01 0.55234E-01 0.82812E-01 0.11916     0.16142     0.20463     0.24255    
 0.26896     0.27859     0.26900     0.24260     0.20466     0.16142     0.11914     0.82785E-01 0.55209E-01 0.36522E-01
 0.24982E-01 0.18451E-01 0.17635E-01 0.14821E-01 0.14822E-01 0.17639E-01 0.24225E-01 0.36538E-01 0.57473E-01 0.90127E-01
 0.13536     0.18909     0.24375     0.29178     0.32742     0.34664     0.34667     0.32748     0.29184     0.24377    
 0.18908     0.13532     0.90091E-01 0.57447E-01 0.36522E-01 0.24217E-01 0.22179E-01 0.16412E-01 0.14708E-01 0.16414E-01
 0.22183E-01 0.34008E-01 0.55227E-01 0.90121E-01 0.14141     0.20514     0.27042     0.32716     0.37012     0.39707    
 0.40640     0.39713     0.37019     0.32722     0.27043     0.20511     0.14137     0.90091E-01 0.55209E-01 0.33999E-01
 0.29636E-01 0.19525E-01 0.15325E-01 0.15325E-01 0.19527E-01 0.29640E-01 0.49092E-01 0.82798E-01 0.13534     0.20512    
 0.28000     0.34579     0.39615     0.43038     0.44810     0.44814     0.43047     0.39624     0.34585     0.28002    
 0.20511     0.13532     0.82785E-01 0.49084E-01 0.40679E-01 0.24583E-01 0.16989E-01 0.14803E-01 0.16990E-01 0.24584E-01
 0.40681E-01 0.70273E-01 0.11913     0.18905     0.27037     0.34576     0.40496     0.44730     0.47371     0.48293    
 0.47379     0.44743     0.40509     0.34585     0.27043     0.18908     0.11914     0.70272E-01 0.55645E-01 0.31930E-01
 0.19930E-01 0.15093E-01 0.15094E-01 0.19931E-01 0.31930E-01 0.55642E-01 0.97208E-01 0.16138     0.24368     0.32709    
 0.39609     0.44727     0.48255     0.50142     0.50147     0.48268     0.44743     0.39624     0.32722     0.24377    
 0.16142     0.97222E-01 0.74088E-01 0.41650E-01 0.24310E-01 0.16321E-01 0.14061E-01 0.16321E-01 0.24310E-01 0.41648E-01
 0.74078E-01 0.12797     0.20459     0.29172     0.37004     0.43030     0.47365     0.50138     0.51126     0.50147    
 0.47379     0.43046     0.37019     0.29184     0.20466     0.12801     0.94378E-01 0.53160E-01 0.30029E-01 0.18498E-01
 0.13900E-01 0.13900E-01 0.18499E-01 0.30029E-01 0.53157E-01 0.94364E-01 0.15893     0.24252     0.32737     0.39700    
 0.44800     0.48282     0.50138     0.50142     0.48293     0.44813     0.39713     0.32748     0.24260     0.15896    
 0.11355     0.64992E-01 0.36478E-01 0.21429E-01 0.14503E-01 0.12537E-01 0.14503E-01 0.21429E-01 0.36478E-01 0.64993E-01
 0.11355     0.18485     0.26896     0.34660     0.40631     0.44800     0.47365     0.48255     0.47371     0.44810    
 0.40640     0.34667     0.26900     0.18486     0.12762     0.74924E-01 0.42523E-01 0.24613E-01 0.15645E-01 0.12017E-01
 0.12018E-01 0.15645E-01 0.24616E-01 0.42530E-01 0.74939E-01 0.12764     0.19999     0.27859     0.34660     0.39700    
 0.43030     0.44727     0.44730     0.43037     0.39707     0.34664     0.27859     0.19997     0.13284     0.80620E-01
 0.46817E-01 0.27325E-01 0.16963E-01 0.12085E-01 0.10673E-01 0.12086E-01 0.16965E-01 0.27333E-01 0.46834E-01 0.80651E-01
 0.13289     0.19999     0.26896     0.32737     0.37004     0.39609     0.40496     0.39615     0.37012     0.32742    
 0.26896     0.19995     0.12761     0.80616E-01 0.48356E-01 0.28867E-01 0.18007E-01 0.12429E-01 0.10105E-01 0.10105E-01
 0.12431E-01 0.18013E-01 0.28880E-01 0.48380E-01 0.80651E-01 0.12764     0.18485     0.24252     0.29172     0.32709    
 0.34576     0.34579     0.32716     0.29178     0.24255     0.18484     0.11353     0.74916E-01 0.46814E-01 0.28867E-01
 0.18402E-01 0.12717E-01 0.99632E-02 0.91480E-02 0.99644E-02 0.12721E-01 0.18409E-01 0.28880E-01 0.46834E-01 0.74939E-01
 0.11355     0.15893     0.20459     0.24368     0.27037     0.28000     0.27042     0.24375     0.20463     0.15894    
 0.94366E-01 0.64984E-01 0.42519E-01 0.27323E-01 0.18006E-01 0.12717E-01 0.99572E-02 0.87941E-02 0.87946E-02 0.99590E-02
 0.12721E-01 0.18013E-01 0.27333E-01 0.42530E-01 0.64993E-01 0.94364E-01 0.12797     0.16138     0.18905     0.20512    
 0.20514     0.18909     0.16142     0.12799     0.74085E-01 0.53156E-01 0.36474E-01 0.24610E-01 0.16961E-01 0.12428E-01
 0.99624E-02 0.87937E-02 0.84575E-02 0.87946E-02 0.99644E-02 0.12431E-01 0.16965E-01 0.24616E-01 0.36478E-01 0.53157E-01
 0.74078E-01 0.97208E-01 0.11913     0.13534     0.14141     0.13536     0.11916     0.97225E-01 0.55650E-01 0.41650E-01
 0.30027E-01 0.21426E-01 0.15642E-01 0.12083E-01 0.10103E-01 0.91468E-02 0.87937E-02 0.87941E-02 0.91480E-02 0.10105E-01
 0.12086E-01 0.15645E-01 0.21429E-01 0.30029E-01 0.41648E-01 0.55642E-01 0.70273E-01 0.82798E-01 0.90121E-01 0.90127E-01
 0.82812E-01 0.70286E-01 0.40688E-01 0.31933E-01 0.24310E-01 0.18497E-01 0.14500E-01 0.12015E-01 0.10671E-01 0.10103E-01
 0.99624E-02 0.99572E-02 0.99632E-02 0.10105E-01 0.10673E-01 0.12018E-01 0.14503E-01 0.18499E-01 0.24310E-01 0.31930E-01
 0.40681E-01 0.49092E-01 0.55227E-01 0.57473E-01 0.55234E-01 0.49101E-01 0.29646E-01 0.24588E-01 0.19932E-01 0.16320E-01
 0.13898E-01 0.12534E-01 0.12015E-01 0.12083E-01 0.12428E-01 0.12717E-01 0.12717E-01 0.12429E-01 0.12085E-01 0.12017E-01
 0.12537E-01 0.13900E-01 0.16321E-01 0.19931E-01 0.24584E-01 0.29640E-01 0.34008E-01 0.36538E-01 0.36540E-01 0.34014E-01
 0.22187E-01 0.19530E-01 0.16991E-01 0.15094E-01 0.14060E-01 0.13898E-01 0.14500E-01 0.15642E-01 0.16961E-01 0.18006E-01
 0.18402E-01 0.18007E-01 0.16963E-01 0.15645E-01 0.14503E-01 0.13900E-01 0.14061E-01 0.15094E-01 0.16990E-01 0.19527E-01
 0.22183E-01 0.24225E-01 0.24994E-01 0.24228E-01 0.17641E-01 0.16416E-01 0.15328E-01 0.14804E-01 0.15094E-01 0.16320E-01
 0.18497E-01 0.21426E-01 0.24610E-01 0.27323E-01 0.28867E-01 0.28867E-01 0.27325E-01 0.24613E-01 0.21429E-01 0.18498E-01
 0.16321E-01 0.15093E-01 0.14803E-01 0.15325E-01 0.16414E-01 0.17639E-01 0.18458E-01 0.18459E-01 0.15226E-01 0.14825E-01
 0.14711E-01 0.15328E-01 0.16991E-01 0.19932E-01 0.24310E-01 0.30027E-01 0.36474E-01 0.42519E-01 0.46814E-01 0.48356E-01
 0.46817E-01 0.42523E-01 0.36478E-01 0.30029E-01 0.24310E-01 0.19930E-01 0.16989E-01 0.15325E-01 0.14708E-01 0.14822E-01
 0.15224E-01 0.15435E-01 0.14191E-01 0.14262E-01 0.14825E-01 0.16416E-01 0.19530E-01 0.24588E-01 0.31933E-01 0.41650E-01
 0.53156E-01 0.64984E-01 0.74916E-01 0.80616E-01 0.80620E-01 0.74924E-01 0.64992E-01 0.53160E-01 0.41650E-01 0.31930E-01
 0.24583E-01 0.19525E-01 0.16412E-01 0.14821E-01 0.14259E-01 0.14190E-01 0.14750E-01 0.15313E-01 0.17207E-01 0.21000E-01
 0.27597E-01 0.38282E-01 0.54508E-01 0.76999E-01 0.10454     0.13379     0.16018     0.17894     0.18583     0.17895    
 0.16020     0.13380     0.10455     0.76995E-01 0.54500E-01 0.38274E-01 0.27590E-01 0.20995E-01 0.17204E-01 0.15312E-01
 0.15312E-01 0.15313E-01 0.17509E-01 0.22453E-01 0.31254E-01 0.45598E-01 0.67633E-01 0.98936E-01 0.13837     0.18138    
 0.22198     0.25426     0.27252     0.27253     0.25428     0.22200     0.18139     0.13836     0.98923E-01 0.67619E-01
 0.45585E-01 0.31245E-01 0.22447E-01 0.17506E-01 0.17204E-01 0.15614E-01 0.17206E-01 0.22452E-01 0.32724E-01 0.50176E-01
 0.77602E-01 0.11754     0.16930     0.22673     0.28145     0.32674     0.35726     0.36819     0.35729     0.32677    
 0.28147     0.22673     0.16928     0.11751     0.77579E-01 0.50160E-01 0.32715E-01 0.22447E-01 0.20995E-01 0.16635E-01
 0.16636E-01 0.20998E-01 0.31252E-01 0.50174E-01 0.81361E-01 0.12837     0.19138     0.26286     0.33067     0.38634    
 0.42608     0.44713     0.44715     0.42612     0.38638     0.33069     0.26285     0.19135     0.12834     0.81338E-01
 0.50160E-01 0.31245E-01 0.27590E-01 0.18977E-01 0.16492E-01 0.18978E-01 0.27593E-01 0.45593E-01 0.77595E-01 0.12836    
 0.19946     0.28322     0.36369     0.42867     0.47508     0.50326     0.51281     0.50330     0.47513     0.42870    
 0.36370     0.28320     0.19943     0.12834     0.77579E-01 0.45585E-01 0.38274E-01 0.23342E-01 0.17383E-01 0.17384E-01
 0.23343E-01 0.38277E-01 0.67625E-01 0.11753     0.19136     0.28321     0.37544     0.45095     0.50465     0.53901    
 0.55601     0.55604     0.53906     0.50471     0.45099     0.37546     0.28320     0.19135     0.11751     0.67619E-01
 0.54500E-01 0.30552E-01 0.19757E-01 0.16771E-01 0.19757E-01 0.30553E-01 0.54502E-01 0.98924E-01 0.16928     0.26283    
 0.36366     0.45093     0.51462     0.55664     0.58091     0.58895     0.58096     0.55671     0.51469     0.45099    
 0.36370     0.26285     0.16928     0.98923E-01 0.76995E-01 0.41374E-01 0.23988E-01 0.17334E-01 0.17334E-01 0.23989E-01
 0.41374E-01 0.76993E-01 0.13835     0.22670     0.33063     0.42862     0.50462     0.55662     0.58912     0.60504    
 0.60507     0.58919     0.55671     0.50471     0.42870     0.33069     0.22673     0.13836     0.10455     0.55995E-01
 0.30372E-01 0.19156E-01 0.16114E-01 0.19156E-01 0.30373E-01 0.55994E-01 0.10454     0.18136     0.28142     0.38630    
 0.47503     0.53897     0.58088     0.60502     0.61301     0.60507     0.58096     0.53906     0.47513     0.38638    
 0.28147     0.18139     0.13380     0.73374E-01 0.38870E-01 0.22291E-01 0.16014E-01 0.16014E-01 0.22291E-01 0.38870E-01
 0.73371E-01 0.13378     0.22197     0.32672     0.42605     0.50322     0.55596     0.58889     0.60502     0.60504    
 0.58895     0.55604     0.50330     0.42612     0.32677     0.22200     0.16020     0.91078E-01 0.48737E-01 0.26643E-01
 0.16948E-01 0.14306E-01 0.16948E-01 0.26643E-01 0.48737E-01 0.91078E-01 0.16019     0.25427     0.35726     0.44711    
 0.51276     0.55596     0.58088     0.58912     0.58091     0.55601     0.51281     0.44715     0.35729     0.25428    
 0.17895     0.10585     0.58366E-01 0.31730E-01 0.18771E-01 0.13759E-01 0.13759E-01 0.18771E-01 0.31732E-01 0.58371E-01
 0.10586     0.17897     0.27255     0.36819     0.44711     0.50322     0.53897     0.55662     0.55663     0.53901    
 0.50326     0.44713     0.36819     0.27253     0.18583     0.11438     0.65563E-01 0.36486E-01 0.21089E-01 0.14077E-01
 0.12109E-01 0.14077E-01 0.21091E-01 0.36492E-01 0.65578E-01 0.11441     0.18586     0.27255     0.35726     0.42605    
 0.47503     0.50462     0.51462     0.50465     0.47508     0.42608     0.35726     0.27252     0.17894     0.11438    
 0.68259E-01 0.39432E-01 0.23115E-01 0.14827E-01 0.11458E-01 0.11458E-01 0.14828E-01 0.23119E-01 0.39443E-01 0.68280E-01
 0.11441     0.17897     0.25427     0.32672     0.38630     0.42862     0.45093     0.45095     0.42867     0.38634    
 0.32674     0.25426     0.16018     0.10584     0.65561E-01 0.39431E-01 0.23930E-01 0.15431E-01 0.11332E-01 0.10128E-01
 0.11333E-01 0.15433E-01 0.23935E-01 0.39443E-01 0.65578E-01 0.10586     0.16019     0.22197     0.28142     0.33063    
 0.36366     0.37544     0.36369     0.33067     0.28145     0.22198     0.13379     0.91070E-01 0.58362E-01 0.36484E-01
 0.23114E-01 0.15430E-01 0.11344E-01 0.95913E-02 0.95916E-02 0.11345E-01 0.15433E-01 0.23119E-01 0.36492E-01 0.58371E-01
 0.91078E-01 0.13378     0.18136     0.22670     0.26283     0.28321     0.28322     0.26286     0.22673     0.18138    
 0.10454     0.73370E-01 0.48734E-01 0.31728E-01 0.21088E-01 0.14826E-01 0.11331E-01 0.95911E-02 0.90675E-02 0.95916E-02
 0.11333E-01 0.14828E-01 0.21091E-01 0.31732E-01 0.48737E-01 0.73371E-01 0.10454     0.13835     0.16928     0.19136    
 0.19946     0.19138     0.16930     0.13837     0.76999E-01 0.55995E-01 0.38869E-01 0.26641E-01 0.18769E-01 0.14075E-01
 0.11457E-01 0.10127E-01 0.95911E-02 0.95913E-02 0.10128E-01 0.11458E-01 0.14077E-01 0.18771E-01 0.26643E-01 0.38870E-01
 0.55994E-01 0.76993E-01 0.98924E-01 0.11753     0.12836     0.12837     0.11754     0.98936E-01 0.54508E-01 0.41376E-01
 0.30373E-01 0.22290E-01 0.16946E-01 0.13757E-01 0.12107E-01 0.11457E-01 0.11331E-01 0.11344E-01 0.11332E-01 0.11458E-01
 0.12109E-01 0.13759E-01 0.16948E-01 0.22291E-01 0.30373E-01 0.41374E-01 0.54502E-01 0.67625E-01 0.77595E-01 0.81361E-01
 0.77602E-01 0.67633E-01 0.38282E-01 0.30556E-01 0.23990E-01 0.19156E-01 0.16013E-01 0.14304E-01 0.13757E-01 0.14075E-01
 0.14826E-01 0.15430E-01 0.15431E-01 0.14827E-01 0.14077E-01 0.13759E-01 0.14306E-01 0.16014E-01 0.19156E-01 0.23989E-01
 0.30553E-01 0.38277E-01 0.45593E-01 0.50174E-01 0.50176E-01 0.45598E-01 0.27597E-01 0.23346E-01 0.19759E-01 0.17335E-01
 0.16114E-01 0.16013E-01 0.16946E-01 0.18769E-01 0.21088E-01 0.23114E-01 0.23930E-01 0.23115E-01 0.21089E-01 0.18771E-01
 0.16948E-01 0.16014E-01 0.16114E-01 0.17334E-01 0.19757E-01 0.23343E-01 0.27593E-01 0.31252E-01 0.32724E-01 0.31254E-01
 0.21000E-01 0.18980E-01 0.17385E-01 0.16772E-01 0.17335E-01 0.19156E-01 0.22290E-01 0.26641E-01 0.31728E-01 0.36484E-01
 0.39431E-01 0.39432E-01 0.36486E-01 0.31730E-01 0.26643E-01 0.22291E-01 0.19156E-01 0.17334E-01 0.16771E-01 0.17384E-01
 0.18978E-01 0.20998E-01 0.22452E-01 0.22453E-01 0.17207E-01 0.16638E-01 0.16494E-01 0.17385E-01 0.19759E-01 0.23990E-01
 0.30373E-01 0.38869E-01 0.48734E-01 0.58362E-01 0.65561E-01 0.68259E-01 0.65563E-01 0.58366E-01 0.48737E-01 0.38870E-01
 0.30372E-01 0.23988E-01 0.19757E-01 0.17383E-01 0.16492E-01 0.16636E-01 0.17206E-01 0.17509E-01 0.15313E-01 0.15616E-01
 0.16638E-01 0.18980E-01 0.23346E-01 0.30556E-01 0.41376E-01 0.55995E-01 0.73370E-01 0.91070E-01 0.10584     0.11438    
 0.11438     0.10585     0.91078E-01 0.73374E-01 0.55995E-01 0.41374E-01 0.30552E-01 0.23342E-01 0.18977E-01 0.16635E-01
 0.15614E-01 0.15313E-01 0.15801E-01 0.16700E-01 0.19546E-01 0.24852E-01 0.33672E-01 0.47853E-01 0.69891E-01 0.10151    
 0.14108     0.18280     0.21942     0.24464     0.25369     0.24465     0.21943     0.18281     0.14108     0.10150    
 0.69885E-01 0.47847E-01 0.33667E-01 0.24848E-01 0.19544E-01 0.16699E-01 0.16699E-01 0.16699E-01 0.19779E-01 0.26685E-01
 0.38882E-01 0.58709E-01 0.89429E-01 0.13360     0.18919     0.24780     0.29957     0.33784     0.35828     0.35829    
 0.33785     0.29958     0.24781     0.18919     0.13359     0.89417E-01 0.58699E-01 0.38876E-01 0.26681E-01 0.19777E-01
 0.19544E-01 0.17429E-01 0.19545E-01 0.26684E-01 0.41065E-01 0.65920E-01 0.10507     0.16138     0.23223     0.30685    
 0.37255     0.42239     0.45365     0.46436     0.45367     0.42241     0.37256     0.30685     0.23222     0.16136    
 0.10506     0.65907E-01 0.41058E-01 0.26681E-01 0.24848E-01 0.19141E-01 0.19141E-01 0.24850E-01 0.38881E-01 0.65918E-01
 0.11116     0.17768     0.26198     0.35104     0.42915     0.48838     0.52792     0.54790     0.54791     0.52794    
 0.48840     0.42915     0.35103     0.26196     0.17765     0.11114     0.65907E-01 0.38876E-01 0.33667E-01 0.22365E-01
 0.19226E-01 0.22366E-01 0.33670E-01 0.58705E-01 0.10507     0.17768     0.27262     0.37465     0.46488     0.53308    
 0.57922     0.60607     0.61494     0.60609     0.57925     0.53310     0.46488     0.37463     0.27260     0.17765    
 0.10506     0.58699E-01 0.47847E-01 0.27963E-01 0.20455E-01 0.20455E-01 0.27963E-01 0.47849E-01 0.89422E-01 0.16137    
 0.26197     0.37464     0.47711     0.55576     0.60935     0.64223     0.65795     0.65796     0.64225     0.60938    
 0.55579     0.47712     0.37463     0.26196     0.16136     0.89417E-01 0.69885E-01 0.37202E-01 0.23422E-01 0.19758E-01
 0.23422E-01 0.37203E-01 0.69886E-01 0.13359     0.23222     0.35101     0.46486     0.55575     0.61932     0.65961    
 0.68178     0.68888     0.68180     0.65965     0.61936     0.55579     0.46488     0.35103     0.23222     0.13359    
 0.10150     0.51549E-01 0.28754E-01 0.20505E-01 0.20505E-01 0.28754E-01 0.51549E-01 0.10150     0.18918     0.30683    
 0.42912     0.53305     0.60933     0.65960     0.68942     0.70327     0.70329     0.68945     0.65965     0.60938    
 0.53310     0.42915     0.30685     0.18919     0.14108     0.71812E-01 0.37062E-01 0.22828E-01 0.19110E-01 0.22828E-01
 0.37062E-01 0.71811E-01 0.14107     0.24779     0.37252     0.48835     0.57919     0.64221     0.68176     0.70326    
 0.71008     0.70329     0.68180     0.64225     0.57925     0.48840     0.37256     0.24781     0.18281     0.96909E-01
 0.48642E-01 0.26890E-01 0.19084E-01 0.19084E-01 0.26890E-01 0.48641E-01 0.96906E-01 0.18280     0.29956     0.42238    
 0.52790     0.60604     0.65792     0.68885     0.70326     0.70327     0.68888     0.65796     0.60609     0.52794    
 0.42241     0.29958     0.21943     0.12335     0.62935E-01 0.32796E-01 0.20366E-01 0.17100E-01 0.20366E-01 0.32797E-01
 0.62935E-01 0.12335     0.21943     0.33784     0.45365     0.54789     0.61491     0.65792     0.68176     0.68942    
 0.68178     0.65795     0.61494     0.54791     0.45367     0.33785     0.24465     0.14597     0.77874E-01 0.40184E-01
 0.22870E-01 0.16507E-01 0.16507E-01 0.22870E-01 0.40185E-01 0.77879E-01 0.14599     0.24467     0.35830     0.46436    
 0.54789     0.60604     0.64221     0.65960     0.65961     0.64223     0.60607     0.54790     0.46436     0.35829    
 0.25369     0.15925     0.89740E-01 0.47613E-01 0.26164E-01 0.16933E-01 0.14434E-01 0.16934E-01 0.26165E-01 0.47618E-01
 0.89753E-01 0.15928     0.25372     0.35830     0.45365     0.52790     0.57919     0.60933     0.61932     0.60935    
 0.57922     0.52792     0.45365     0.35828     0.24464     0.15925     0.94347E-01 0.52501E-01 0.29169E-01 0.17864E-01
 0.13475E-01 0.13476E-01 0.17865E-01 0.29173E-01 0.52510E-01 0.94366E-01 0.15928     0.24467     0.33784     0.42238    
 0.48835     0.53305     0.55575     0.55576     0.53308     0.48837     0.42239     0.33784     0.21942     0.14597    
 0.89737E-01 0.52500E-01 0.30419E-01 0.18611E-01 0.13128E-01 0.11562E-01 0.13129E-01 0.18613E-01 0.30424E-01 0.52510E-01
 0.89753E-01 0.14599     0.21943     0.29956     0.37252     0.42912     0.46486     0.47711     0.46488     0.42915    
 0.37255     0.29957     0.18280     0.12334     0.77871E-01 0.47611E-01 0.29169E-01 0.18611E-01 0.13053E-01 0.10703E-01
 0.10703E-01 0.13054E-01 0.18613E-01 0.29173E-01 0.47618E-01 0.77879E-01 0.12335     0.18280     0.24779     0.30683    
 0.35101     0.37464     0.37465     0.35104     0.30685     0.24780     0.14108     0.96906E-01 0.62932E-01 0.40182E-01
 0.26163E-01 0.17863E-01 0.13128E-01 0.10702E-01 0.99577E-02 0.10703E-01 0.13129E-01 0.17865E-01 0.26165E-01 0.40185E-01
 0.62935E-01 0.96906E-01 0.14107     0.18918     0.23222     0.26197     0.27262     0.26198     0.23223     0.18919    
 0.10151     0.71812E-01 0.48640E-01 0.32795E-01 0.22869E-01 0.16932E-01 0.13475E-01 0.11561E-01 0.10702E-01 0.10703E-01
 0.11562E-01 0.13476E-01 0.16934E-01 0.22870E-01 0.32797E-01 0.48641E-01 0.71811E-01 0.10150     0.13359     0.16137    
 0.17768     0.17768     0.16138     0.13360     0.69891E-01 0.51551E-01 0.37062E-01 0.26889E-01 0.20365E-01 0.16506E-01
 0.14433E-01 0.13475E-01 0.13128E-01 0.13053E-01 0.13128E-01 0.13475E-01 0.14434E-01 0.16507E-01 0.20366E-01 0.26890E-01
 0.37062E-01 0.51549E-01 0.69886E-01 0.89422E-01 0.10507     0.11116     0.10507     0.89429E-01 0.47853E-01 0.37205E-01
 0.28755E-01 0.22828E-01 0.19083E-01 0.17098E-01 0.16506E-01 0.16932E-01 0.17863E-01 0.18611E-01 0.18611E-01 0.17864E-01
 0.16933E-01 0.16507E-01 0.17100E-01 0.19084E-01 0.22828E-01 0.28754E-01 0.37203E-01 0.47849E-01 0.58705E-01 0.65918E-01
 0.65920E-01 0.58709E-01 0.33672E-01 0.27965E-01 0.23423E-01 0.20505E-01 0.19109E-01 0.19083E-01 0.20365E-01 0.22869E-01
 0.26163E-01 0.29169E-01 0.30419E-01 0.29169E-01 0.26164E-01 0.22870E-01 0.20366E-01 0.19084E-01 0.19110E-01 0.20505E-01
 0.23422E-01 0.27963E-01 0.33670E-01 0.38881E-01 0.41065E-01 0.38882E-01 0.24852E-01 0.22367E-01 0.20456E-01 0.19759E-01
 0.20505E-01 0.22828E-01 0.26889E-01 0.32795E-01 0.40182E-01 0.47611E-01 0.52500E-01 0.52501E-01 0.47613E-01 0.40184E-01
 0.32796E-01 0.26890E-01 0.22828E-01 0.20505E-01 0.19758E-01 0.20455E-01 0.22366E-01 0.24850E-01 0.26684E-01 0.26685E-01
 0.19546E-01 0.19143E-01 0.19227E-01 0.20456E-01 0.23423E-01 0.28755E-01 0.37062E-01 0.48640E-01 0.62932E-01 0.77871E-01
 0.89737E-01 0.94347E-01 0.89740E-01 0.77874E-01 0.62935E-01 0.48642E-01 0.37062E-01 0.28754E-01 0.23422E-01 0.20455E-01
 0.19226E-01 0.19141E-01 0.19545E-01 0.19779E-01 0.16700E-01 0.17430E-01 0.19143E-01 0.22367E-01 0.27965E-01 0.37205E-01
 0.51551E-01 0.71812E-01 0.96906E-01 0.12334     0.14597     0.15925     0.15925     0.14597     0.12335     0.96909E-01
 0.71812E-01 0.51549E-01 0.37202E-01 0.27963E-01 0.22365E-01 0.19141E-01 0.17429E-01 0.16699E-01 0.17475E-01 0.18579E-01
 0.22107E-01 0.28808E-01 0.40231E-01 0.59102E-01 0.89148E-01 0.13305     0.18845     0.24641     0.29607     0.32920    
 0.34081     0.32921     0.29608     0.24641     0.18845     0.13305     0.89143E-01 0.59098E-01 0.40228E-01 0.28806E-01
 0.22106E-01 0.18578E-01 0.18578E-01 0.18578E-01 0.22189E-01 0.30624E-01 0.46361E-01 0.73221E-01 0.11596     0.17740    
 0.25294     0.32938     0.39321     0.43758     0.46019     0.46020     0.43759     0.39322     0.32938     0.25294    
 0.17739     0.11595     0.73213E-01 0.46356E-01 0.30622E-01 0.22188E-01 0.22106E-01 0.19671E-01 0.22107E-01 0.30624E-01
 0.48905E-01 0.82673E-01 0.13774     0.21570     0.30858     0.39975     0.47446     0.52726     0.55840     0.56872    
 0.55841     0.52727     0.47447     0.39975     0.30857     0.21569     0.13772     0.82663E-01 0.48900E-01 0.30622E-01
 0.28806E-01 0.22034E-01 0.22035E-01 0.28807E-01 0.46360E-01 0.82672E-01 0.14625     0.23796     0.34545     0.44865    
 0.53231     0.59198     0.62973     0.64808     0.64808     0.62974     0.59199     0.53231     0.44865     0.34544    
 0.23794     0.14623     0.82663E-01 0.46356E-01 0.40228E-01 0.26230E-01 0.22472E-01 0.26230E-01 0.40230E-01 0.73218E-01
 0.13773     0.23796     0.35827     0.47337     0.56628     0.63296     0.67651     0.70106     0.70902     0.70107    
 0.67653     0.63297     0.56629     0.47336     0.35826     0.23794     0.13772     0.73213E-01 0.59098E-01 0.33401E-01
 0.24133E-01 0.24133E-01 0.33402E-01 0.59099E-01 0.11595     0.21569     0.34545     0.47337     0.57746     0.65277    
 0.70283     0.73291     0.74701     0.74701     0.73292     0.70285     0.65279     0.57747     0.47336     0.34544    
 0.21569     0.11595     0.89143E-01 0.45395E-01 0.27862E-01 0.23335E-01 0.27863E-01 0.45396E-01 0.89144E-01 0.17739    
 0.30857     0.44864     0.56627     0.65277     0.71134     0.74782     0.76748     0.77368     0.76749     0.74784    
 0.71136     0.65279     0.56629     0.44865     0.30857     0.17739     0.13305     0.64534E-01 0.34659E-01 0.24276E-01
 0.24276E-01 0.34659E-01 0.64534E-01 0.13305     0.25293     0.39973     0.53229     0.63295     0.70282     0.74782    
 0.77393     0.78581     0.78581     0.77395     0.74784     0.70285     0.63297     0.53231     0.39975     0.25294    
 0.18845     0.92473E-01 0.45611E-01 0.27283E-01 0.22627E-01 0.27284E-01 0.45611E-01 0.92473E-01 0.18844     0.32937    
 0.47445     0.59197     0.67650     0.73290     0.76748     0.78581     0.79152     0.78581     0.76749     0.73292    
 0.67653     0.59199     0.47447     0.32938     0.24641     0.12816     0.61475E-01 0.32707E-01 0.22779E-01 0.22779E-01
 0.32707E-01 0.61474E-01 0.12816     0.24641     0.39320     0.52725     0.62972     0.70105     0.74700     0.77367    
 0.78581     0.78581     0.77368     0.74701     0.70107     0.62974     0.52727     0.39322     0.29608     0.16659    
 0.81781E-01 0.40771E-01 0.24642E-01 0.20520E-01 0.24642E-01 0.40771E-01 0.81781E-01 0.16659     0.29608     0.43759    
 0.55840     0.64807     0.70901     0.74700     0.76748     0.77393     0.76748     0.74701     0.70902     0.64808    
 0.55841     0.43759     0.32921     0.19977     0.10368     0.51020E-01 0.28037E-01 0.19939E-01 0.19939E-01 0.28037E-01
 0.51021E-01 0.10368     0.19977     0.32922     0.46021     0.56872     0.64807     0.70105     0.73290     0.74782    
 0.74782     0.73291     0.70106     0.64808     0.56872     0.46020     0.34081     0.21918     0.12144     0.61467E-01
 0.32339E-01 0.20479E-01 0.17365E-01 0.20479E-01 0.32340E-01 0.61470E-01 0.12145     0.21920     0.34083     0.46021    
 0.55840     0.62972     0.67650     0.70282     0.71134     0.70283     0.67651     0.62973     0.55840     0.46019    
 0.32920     0.21918     0.12839     0.68403E-01 0.36170E-01 0.21484E-01 0.16044E-01 0.16045E-01 0.21485E-01 0.36172E-01
 0.68410E-01 0.12841     0.21920     0.32922     0.43759     0.52725     0.59197     0.63295     0.65277     0.65277    
 0.63296     0.59198     0.52726     0.43758     0.29607     0.19976     0.12144     0.68402E-01 0.37743E-01 0.22240E-01
 0.15425E-01 0.13537E-01 0.15425E-01 0.22242E-01 0.37746E-01 0.68410E-01 0.12145     0.19977     0.29608     0.39320    
 0.47445     0.53229     0.56627     0.57746     0.56628     0.53231     0.47446     0.39321     0.24641     0.16658    
 0.10368     0.61465E-01 0.36169E-01 0.22240E-01 0.15241E-01 0.12385E-01 0.12385E-01 0.15241E-01 0.22242E-01 0.36172E-01
 0.61470E-01 0.10368     0.16659     0.24641     0.32937     0.39973     0.44864     0.47337     0.47337     0.44865    
 0.39975     0.32938     0.18845     0.12816     0.81779E-01 0.51019E-01 0.32338E-01 0.21484E-01 0.15425E-01 0.12385E-01
 0.11463E-01 0.12385E-01 0.15425E-01 0.21485E-01 0.32340E-01 0.51021E-01 0.81781E-01 0.12816     0.18844     0.25293    
 0.30857     0.34545     0.35827     0.34545     0.30858     0.25294     0.13305     0.92473E-01 0.61474E-01 0.40770E-01
 0.28036E-01 0.20478E-01 0.16044E-01 0.13537E-01 0.12385E-01 0.12385E-01 0.13537E-01 0.16045E-01 0.20479E-01 0.28037E-01
 0.40771E-01 0.61474E-01 0.92473E-01 0.13305     0.17739     0.21569     0.23796     0.23796     0.21570     0.17740    
 0.89148E-01 0.64536E-01 0.45611E-01 0.32706E-01 0.24641E-01 0.19938E-01 0.17364E-01 0.16044E-01 0.15425E-01 0.15241E-01
 0.15425E-01 0.16044E-01 0.17365E-01 0.19939E-01 0.24642E-01 0.32707E-01 0.45611E-01 0.64534E-01 0.89144E-01 0.11595    
 0.13773     0.14625     0.13774     0.11596     0.59102E-01 0.45397E-01 0.34660E-01 0.27283E-01 0.22779E-01 0.20519E-01
 0.19938E-01 0.20478E-01 0.21484E-01 0.22240E-01 0.22240E-01 0.21484E-01 0.20479E-01 0.19939E-01 0.20520E-01 0.22779E-01
 0.27284E-01 0.34659E-01 0.45396E-01 0.59099E-01 0.73218E-01 0.82672E-01 0.82673E-01 0.73221E-01 0.40231E-01 0.33403E-01
 0.27863E-01 0.24276E-01 0.22627E-01 0.22779E-01 0.24641E-01 0.28036E-01 0.32338E-01 0.36169E-01 0.37743E-01 0.36170E-01
 0.32339E-01 0.28037E-01 0.24642E-01 0.22779E-01 0.22627E-01 0.24276E-01 0.27863E-01 0.33402E-01 0.40230E-01 0.46360E-01
 0.48905E-01 0.46361E-01 0.28808E-01 0.26231E-01 0.24134E-01 0.23335E-01 0.24276E-01 0.27283E-01 0.32706E-01 0.40770E-01
 0.51019E-01 0.61465E-01 0.68402E-01 0.68403E-01 0.61467E-01 0.51020E-01 0.40771E-01 0.32707E-01 0.27283E-01 0.24276E-01
 0.23335E-01 0.24133E-01 0.26230E-01 0.28807E-01 0.30624E-01 0.30624E-01 0.22107E-01 0.22035E-01 0.22473E-01 0.24134E-01
 0.27863E-01 0.34660E-01 0.45611E-01 0.61474E-01 0.81779E-01 0.10368     0.12144     0.12839     0.12144     0.10368    
 0.81781E-01 0.61475E-01 0.45611E-01 0.34659E-01 0.27862E-01 0.24133E-01 0.22472E-01 0.22035E-01 0.22107E-01 0.22189E-01
 0.18579E-01 0.19671E-01 0.22035E-01 0.26231E-01 0.33403E-01 0.45397E-01 0.64536E-01 0.92473E-01 0.12816     0.16658    
 0.19976     0.21918     0.21918     0.19977     0.16659     0.12816     0.92473E-01 0.64534E-01 0.45395E-01 0.33401E-01
 0.26230E-01 0.22034E-01 0.19671E-01 0.18578E-01 0.19430E-01 0.20625E-01 0.24648E-01 0.32909E-01 0.48051E-01 0.74160E-01
 0.11606     0.17614     0.24962     0.32404     0.38572     0.42558     0.43929     0.42558     0.38572     0.32405    
 0.24963     0.17614     0.11605     0.74157E-01 0.48048E-01 0.32908E-01 0.24647E-01 0.20625E-01 0.20625E-01 0.20625E-01
 0.24696E-01 0.34790E-01 0.55127E-01 0.91978E-01 0.15142     0.23407     0.32986     0.42120     0.49385     0.54230    
 0.56626     0.56626     0.54231     0.49386     0.42120     0.32986     0.23406     0.15141     0.91972E-01 0.55123E-01
 0.34788E-01 0.24695E-01 0.24647E-01 0.21845E-01 0.24648E-01 0.34789E-01 0.57943E-01 0.10349     0.17940     0.28261    
 0.39589     0.49803     0.57647     0.62929     0.65931     0.66904     0.65931     0.62929     0.57647     0.49802    
 0.39588     0.28260     0.17939     0.10348     0.57939E-01 0.34788E-01 0.32908E-01 0.24678E-01 0.24678E-01 0.32909E-01
 0.55126E-01 0.10349     0.19015     0.31013     0.43792     0.54842     0.63120     0.68728     0.72141     0.73756    
 0.73756     0.72142     0.68729     0.63121     0.54841     0.43791     0.31012     0.19013     0.10348     0.55123E-01
 0.48048E-01 0.30059E-01 0.25345E-01 0.30060E-01 0.48050E-01 0.91975E-01 0.17940     0.31013     0.45220     0.57292    
 0.66174     0.72195     0.75988     0.78071     0.78736     0.78071     0.75989     0.72195     0.66174     0.57291    
 0.45219     0.31012     0.17939     0.91972E-01 0.74157E-01 0.39696E-01 0.27580E-01 0.27580E-01 0.39696E-01 0.74158E-01
 0.15141     0.28261     0.43791     0.57292     0.67153     0.73811     0.78072     0.80575     0.81731     0.81731    
 0.80575     0.78072     0.73812     0.67153     0.57291     0.43791     0.28260     0.15141     0.11605     0.56224E-01