 vasp.5.4.4.18Apr17-6-g9f103f2a35 (build Jun 30 2017 11:15:00) complex          
  
 executed on    STALLO_VASP_5.4.4 date 2019.11.08  15:22:44
 running on    4 total cores
 distrk:  each k-point on    4 cores,    1 groups
 distr:  one band on NCORES_PER_BAND=   2 cores,    2 groups


--------------------------------------------------------------------------------------------------------


 INCAR:
 POTCAR:   PAW_PBE Mo 08Apr2002                   
 POTCAR:    PAW_PBE S 17Jan2003                   
 POTCAR:   PAW_PBE Mo 08Apr2002                   
   VRHFIN =Mo: 4p5s4d                                                           
   LEXCH  = PE                                                                  
   EATOM  =   217.5180 eV,   15.9871 Ry                                         
                                                                                
   TITEL  = PAW_PBE Mo 08Apr2002                                                
   LULTRA =        F    use ultrasoft PP ?                                      
   IUNSCR =        1    unscreen: 0-lin 1-nonlin 2-no                           
   RPACOR =    2.200    partial core radius                                     
   POMASS =   95.940; ZVAL   =    6.000    mass and valenz                      
   RCORE  =    2.750    outmost cutoff radius                                   
   RWIGS  =    2.750; RWIGS  =    1.455    wigner-seitz radius (au A)           
   ENMAX  =  224.584; ENMIN  =  168.438 eV                                      
   RCLOC  =    2.111    cutoff for local pot                                    
   LCOR   =        T    correct aug charges                                     
   LPAW   =        T    paw PP                                                  
   EAUG   =  345.278                                                            
   DEXC   =    -.088                                                            
   RMAX   =    3.077    core radius for proj-oper                               
   RAUG   =    1.300    factor for augmentation sphere                          
   RDEP   =    2.815    radius for radial grids                                 
   QCUT   =   -4.063; QGAM   =    8.126    optimization parameters              
                                                                                
   Description                                                                  
     l     E      TYP  RCUT    TYP  RCUT                                        
     2   .000     23  2.500                                                     
     2   .000     23  2.500                                                     
     0   .000     23  2.600                                                     
     0  1.000     23  2.600                                                     
     1   .400     23  2.750                                                     
     1  2.000     23  2.750                                                     
     3   .000      7   .000                                                     
  local pseudopotential read in
  partial core-charges read in
  atomic valenz-charges read in
  non local Contribution for L=           2  read in
    real space projection operators read in
  non local Contribution for L=           2  read in
    real space projection operators read in
  non local Contribution for L=           0  read in
    real space projection operators read in
  non local Contribution for L=           0  read in
    real space projection operators read in
  non local Contribution for L=           1  read in
    real space projection operators read in
  non local Contribution for L=           1  read in
    real space projection operators read in
    PAW grid and wavefunctions read in
 
   number of l-projection  operators is LMAX  =           6
   number of lm-projection operators is LMMAX =          18
 
 POTCAR:    PAW_PBE S 17Jan2003                   
   VRHFIN =S : s2p4                                                             
   LEXCH  = PE                                                                  
   EATOM  =   276.8230 eV,   20.3459 Ry                                         
                                                                                
   TITEL  = PAW_PBE S 17Jan2003                                                 
   LULTRA =        F    use ultrasoft PP ?                                      
   IUNSCR =        1    unscreen: 0-lin 1-nonlin 2-no                           
   RPACOR =    1.500    partial core radius                                     
   POMASS =   32.066; ZVAL   =    6.000    mass and valenz                      
   RCORE  =    1.900    outmost cutoff radius                                   
   RWIGS  =    2.200; RWIGS  =    1.164    wigner-seitz radius (au A)           
   ENMAX  =  280.000; ENMIN  =  194.016 eV                                      
   ICORE  =        2    local potential                                         
   LCOR   =        T    correct aug charges                                     
   LPAW   =        T    paw PP                                                  
   EAUG   =  335.092                                                            
   DEXC   =     .000                                                            
   RMAX   =    2.867    core radius for proj-oper                               
   RAUG   =    1.300    factor for augmentation sphere                          
   RDEP   =    1.954    radius for radial grids                                 
   QCUT   =   -4.360; QGAM   =    8.721    optimization parameters              
                                                                                
   Description                                                                  
     l     E      TYP  RCUT    TYP  RCUT                                        
     0   .000     23  1.900                                                     
     0   .000     23  1.900                                                     
     1   .000     23  1.900                                                     
     1   .000     23  1.900                                                     
     2   .000     23  1.900                                                     
  local pseudopotential read in
  partial core-charges read in
  atomic valenz-charges read in
  non local Contribution for L=           0  read in
    real space projection operators read in
  non local Contribution for L=           0  read in
    real space projection operators read in
  non local Contribution for L=           1  read in
    real space projection operators read in
  non local Contribution for L=           1  read in
    real space projection operators read in
    PAW grid and wavefunctions read in
 
   number of l-projection  operators is LMAX  =           4
   number of lm-projection operators is LMMAX =           8
 
 PAW_PBE Mo 08Apr2002                   :
 energy of atom  1       EATOM= -217.5180
 kinetic energy error for atom=    0.0023 (will be added to EATOM!!)
  PAW_PBE S 17Jan2003                   :
 energy of atom  2       EATOM= -276.8230
 kinetic energy error for atom=    0.0033 (will be added to EATOM!!)
 
 
 POSCAR: MoS2_mp-2815_computed                   
  positions in direct lattice
  velocities in cartesian coordinates
 exchange correlation table for  LEXCH =        8
   RHO(1)=    0.500       N(1)  =     2000
   RHO(2)=  100.500       N(2)  =     4000
 


--------------------------------------------------------------------------------------------------------


 ion  position               nearest neighbor table
   1  0.333  0.667  0.120-   3 2.41   2 2.41   2 2.41   3 2.41   3 2.41   2 2.41
   2  0.667  0.333  0.070-   1 2.41   1 2.41   1 2.41
   3  0.667  0.333  0.171-   1 2.41   1 2.41   1 2.41
 
  LATTYP: Found a hexagonal cell.
 ALAT       =     3.1898568304
 C/A-ratio  =     9.6537181778
  
  Lattice vectors:
  
 A1 = (   3.1898568304,   0.0000000000,   0.0000000000)
 A2 = (  -1.5949284152,   2.7624970496,   0.0000000000)
 A3 = (   0.0000000000,   0.0000000000,  30.7939788683)


Analysis of symmetry for initial positions (statically):
=====================================================================
 Subroutine PRICEL returns:
 Original cell was already a primitive cell.
 

 Routine SETGRP: Setting up the symmetry group for a 
 hexagonal supercell.


 Subroutine GETGRP returns: Found 12 space group operations
 (whereof  6 operations were pure point group operations)
 out of a pool of 24 trial point group operations.


The static configuration has the point symmetry C_3v.
 The point group associated with its full space group is D_3h.


Analysis of symmetry for dynamics (positions and initial velocities):
=====================================================================
 Subroutine PRICEL returns:
 Original cell was already a primitive cell.
 

 Routine SETGRP: Setting up the symmetry group for a 
 hexagonal supercell.


 Subroutine GETGRP returns: Found 12 space group operations
 (whereof  6 operations were pure point group operations)
 out of a pool of 24 trial point group operations.


The dynamic configuration has the point symmetry C_3v.
 The point group associated with its full space group is D_3h.


 Subroutine INISYM returns: Found 12 space group operations
 (whereof  6 operations are pure point group operations),
 and found     1 'primitive' translations

 
 
 KPOINTS: HEX (hexagonal) G-M-K-G-A-L-H-A L-M K-H 
  interpolating k-points between supplied coordinates
  k-points in reciprocal lattice
Space group operators:
 irot       det(A)        alpha          n_x          n_y          n_z        tau_x        tau_y        tau_z
    1     1.000000     0.000000     1.000000     0.000000     0.000000     0.000000     0.000000     0.000000
    2     1.000000   120.000000     0.000000     0.000000    -1.000000     0.000000     0.000000     0.000000
    3     1.000000   120.000000     0.000000     0.000000     1.000000     0.000000     0.000000     0.000000
    4    -1.000000   180.000000     1.000000    -0.000000     0.000000     0.000000     0.000000     0.000000
    5    -1.000000   180.000000     0.500000    -0.866025     0.000000     0.000000     0.000000     0.000000
    6    -1.000000   180.000000    -0.500000    -0.866025     0.000000     0.000000     0.000000     0.000000
    7    -1.000000    60.000000     0.000000     0.000000    -1.000000     0.000000     0.000000     0.240924
    8    -1.000000   180.000000     0.000000     0.000000     1.000000     0.000000     0.000000     0.240924
    9    -1.000000    60.000000     0.000000     0.000000     1.000000     0.000000     0.000001     0.240924
   10     1.000000   180.000000     0.866025    -0.500000     0.000000     0.000000     0.000000     0.240924
   11     1.000000   180.000000     0.000000     1.000000     0.000000     0.000000     0.000000     0.240924
   12     1.000000   180.000000     0.866025     0.500000     0.000000     0.000000     0.000001     0.240924


--------------------------------------------------------------------------------------------------------




 Dimension of arrays:
   k-points           NKPTS =    140   k-points in BZ     NKDIM =    140   number of bands    NBANDS=     14
   number of dos      NEDOS =   2401   number of ions     NIONS =      3
   non local maximal  LDIM  =      6   non local SUM 2l+1 LMDIM =     18
   total plane-waves  NPLWV = 124416
   max r-space proj   IRMAX =      1   max aug-charges    IRDMAX=  29634
   dimension x,y,z NGX =    24 NGY =   24 NGZ =  216
   dimension x,y,z NGXF=    48 NGYF=   48 NGZF=  432
   support grid    NGXF=    48 NGYF=   48 NGZF=  432
   ions per type =               1   2
   NGX,Y,Z   is equivalent  to a cutoff of  12.51, 12.51, 11.66 a.u.
   NGXF,Y,Z  is equivalent  to a cutoff of  25.02, 25.02, 23.32 a.u.

 SYSTEM =  unknown system                          
 POSCAR =  MoS2_mp-2815_computed                   

 Startparameter for this run:
   NWRITE =      2    write-flag & timer
   PREC   = accura    normal or accurate (medium, high low for compatibility)
   ISTART =      0    job   : 0-new  1-cont  2-samecut
   ICHARG =     11    charge: 1-file 2-atom 10-const
   ISPIN  =      1    spin polarized calculation?
   LNONCOLLINEAR =      F non collinear calculations
   LSORBIT =      F    spin-orbit coupling
   INIWAV =      1    electr: 0-lowe 1-rand  2-diag
   LASPH  =      F    aspherical Exc in radial PAW
   METAGGA=      F    non-selfconsistent MetaGGA calc.

 Electronic Relaxation 1
   ENCUT  =  450.0 eV  33.07 Ry    5.75 a.u.   5.52  5.52 53.26*2*pi/ulx,y,z
   ENINI  =  450.0     initial cutoff
   ENAUG  =  345.3 eV  augmentation charge cutoff
   NELM   =     60;   NELMIN=  4; NELMDL= -5     # of ELM steps 
   EDIFF  = 0.1E-05   stopping-criterion for ELM
   LREAL  =      F    real-space projection
   NLSPLINE    = F    spline interpolate recip. space projectors
   LCOMPAT=      F    compatible to vasp.4.4
   GGA_COMPAT  = T    GGA compatible to vasp.4.4-vasp.4.6
   LMAXPAW     = -100 max onsite density
   LMAXMIX     =    2 max onsite mixed and CHGCAR
   VOSKOWN=      0    Vosko Wilk Nusair interpolation
   ROPT   =    0.00000   0.00000
 Ionic relaxation
   EDIFFG = 0.1E-04   stopping-criterion for IOM
   NSW    =      0    number of steps for IOM
   NBLOCK =      1;   KBLOCK =      1    inner block; outer block 
   IBRION =     -1    ionic relax: 0-MD 1-quasi-New 2-CG
   NFREE  =      0    steps in history (QN), initial steepest desc. (CG)
   ISIF   =      2    stress and relaxation
   IWAVPR =     10    prediction:  0-non 1-charg 2-wave 3-comb
   ISYM   =      2    0-nonsym 1-usesym 2-fastsym
   LCORR  =      T    Harris-Foulkes like correction to forces

   POTIM  = 0.5000    time-step for ionic-motion
   TEIN   =    0.0    initial temperature
   TEBEG  =    0.0;   TEEND  =   0.0 temperature during run
   SMASS  =  -3.00    Nose mass-parameter (am)
   estimated Nose-frequenzy (Omega)   =  0.10E-29 period in steps =****** mass=  -0.233E-27a.u.
   SCALEE = 1.0000    scale energy and forces
   NPACO  =    256;   APACO  = 16.0  distance and # of slots for P.C.
   PSTRESS=    0.0 pullay stress

  Mass of Ions in am
   POMASS =  95.94 32.07
  Ionic Valenz
   ZVAL   =   6.00  6.00
  Atomic Wigner-Seitz radii
   RWIGS  =  -1.00 -1.00
  virtual crystal weights 
   VCA    =   1.00  1.00
   NELECT =      18.0000    total number of electrons
   NUPDOWN=      -1.0000    fix difference up-down

 DOS related values:
   EMIN   = -12.00;   EMAX   = 12.00  energy-range for DOS
   EFERMI =   0.00
   ISMEAR =     0;   SIGMA  =   0.20  broadening in eV -4-tet -1-fermi 0-gaus

 Electronic relaxation 2 (details)
   IALGO  =     68    algorithm
   LDIAG  =      T    sub-space diagonalisation (order eigenvalues)
   LSUBROT=      F    optimize rotation matrix (better conditioning)
   TURBO    =      0    0=normal 1=particle mesh
   IRESTART =      0    0=no restart 2=restart with 2 vectors
   NREBOOT  =      0    no. of reboots
   NMIN     =      0    reboot dimension
   EREF     =   0.00    reference energy to select bands
   IMIX   =      4    mixing-type and parameters
     AMIX     =   0.40;   BMIX     =  1.00
     AMIX_MAG =   1.60;   BMIX_MAG =  1.00
     AMIN     =   0.10
     WC   =   100.;   INIMIX=   1;  MIXPRE=   1;  MAXMIX= -45

 Intra band minimization:
   WEIMIN = 0.0000     energy-eigenvalue tresh-hold
   EBREAK =  0.18E-07  absolut break condition
   DEPER  =   0.30     relativ break condition  

   TIME   =   0.40     timestep for ELM

  volume/ion in A,a.u.               =      90.45       610.40
  Fermi-wavevector in a.u.,A,eV,Ry     =   0.662704  1.252328  5.975355  0.439176
  Thomas-Fermi vector in A             =   1.735856
 
 Write flags
   LWAVE        =      F    write WAVECAR
   LDOWNSAMPLE  =      F    k-point downsampling of WAVECAR
   LCHARG       =      T    write CHGCAR
   LVTOT        =      F    write LOCPOT, total local potential
   LVHAR        =      F    write LOCPOT, Hartree potential only
   LELF         =      T    write electronic localiz. function (ELF)
   LORBIT       =     11    0 simple, 1 ext, 2 COOP (PROOUT), +10 PAW based schemes


 Dipole corrections
   LMONO  =      F    monopole corrections only (constant potential shift)
   LDIPOL =      F    correct potential (dipole corrections)
   IDIPOL =      0    1-x, 2-y, 3-z, 4-all directions 
   EPSILON=  1.0000000 bulk dielectric constant

 Exchange correlation treatment:
   GGA     =    --    GGA type
   LEXCH   =     8    internal setting for exchange type
   VOSKOWN=      0    Vosko Wilk Nusair interpolation
   LHFCALC =     F    Hartree Fock is set to
   LHFONE  =     F    Hartree Fock one center treatment
   AEXX    =    0.0000 exact exchange contribution

 Linear response parameters
   LEPSILON=     F    determine dielectric tensor
   LRPA    =     F    only Hartree local field effects (RPA)
   LNABLA  =     F    use nabla operator in PAW spheres
   LVEL    =     F    velocity operator in full k-point grid
   LINTERFAST=   F  fast interpolation
   KINTER  =     0    interpolate to denser k-point grid
   CSHIFT  =0.1000    complex shift for real part using Kramers Kronig
   OMEGAMAX=  -1.0    maximum frequency
   DEG_THRESHOLD= 0.2000000E-02 threshold for treating states as degnerate
   RTIME   =   -0.100 relaxation time in fs
  (WPLASMAI=    0.000 imaginary part of plasma frequency in eV, 0.658/RTIME)
   DFIELD  = 0.0000000 0.0000000 0.0000000 field for delta impulse in time
 
 Orbital magnetization related:
   ORBITALMAG=     F  switch on orbital magnetization
   LCHIMAG   =     F  perturbation theory with respect to B field
   DQ        =  0.001000  dq finite difference perturbation B field
   LLRAUG    =     F  two centre corrections for induced B field



--------------------------------------------------------------------------------------------------------


 Static calculation
 charge density and potential remain constant during run
 non-spin polarized calculation
 RMM-DIIS sequential band-by-band and
  variant of blocked Davidson during initial phase
 perform sub-space diagonalisation
    before iterative eigenvector-optimisation
 no mixing
 using additional bands            5
 reciprocal scheme for non local part
 use partial core corrections
 calculate Harris-corrections to forces 
   (improved forces if not selfconsistent)
 use gradient corrections 
 WARNING: stress and forces are not correct
  (second derivative of E(xc) not defined)
 use of overlap-Matrix (Vanderbilt PP)
 Gauss-broadening in eV      SIGMA  =   0.20


--------------------------------------------------------------------------------------------------------


  energy-cutoff  :      450.00
  volume of cell :      271.36
      direct lattice vectors                 reciprocal lattice vectors
     3.189856830  0.000000000  0.000000000     0.313493694  0.180995668  0.000000000
    -1.594928415  2.762497050  0.000000000     0.000000000  0.361991337  0.000000000
     0.000000000  0.000000000 30.793978868     0.000000000  0.000000000  0.032473881

  length of vectors
     3.189856830  3.189856830 30.793978868     0.361991337  0.361991337  0.032473881


 
 k-points in units of 2pi/SCALE and weight: HEX (hexagonal) G-M-K-G-A-L-H-A L-M K-H 
   0.00000000  0.00000000  0.00000000       0.007
   0.00824983  0.00476304  0.00000000       0.007
   0.01649967  0.00952609  0.00000000       0.007
   0.02474950  0.01428913  0.00000000       0.007
   0.03299934  0.01905218  0.00000000       0.007
   0.04124917  0.02381522  0.00000000       0.007
   0.04949900  0.02857826  0.00000000       0.007
   0.05774884  0.03334131  0.00000000       0.007
   0.06599867  0.03810435  0.00000000       0.007
   0.07424851  0.04286740  0.00000000       0.007
   0.08249834  0.04763044  0.00000000       0.007
   0.09074817  0.05239348  0.00000000       0.007
   0.09899801  0.05715653  0.00000000       0.007
   0.10724784  0.06191957  0.00000000       0.007
   0.11549768  0.06668261  0.00000000       0.007
   0.12374751  0.07144566  0.00000000       0.007
   0.13199734  0.07620870  0.00000000       0.007
   0.14024718  0.08097175  0.00000000       0.007
   0.14849701  0.08573479  0.00000000       0.007
   0.15674685  0.09049783  0.00000000       0.007
   0.15674685  0.09049783  0.00000000       0.007
   0.15399635  0.09525993  0.00000000       0.007
   0.15124586  0.10002202  0.00000000       0.007
   0.14849536  0.10478411  0.00000000       0.007
   0.14574487  0.10954620  0.00000000       0.007
   0.14299437  0.11430829  0.00000000       0.007
   0.14024388  0.11907038  0.00000000       0.007
   0.13749338  0.12383247  0.00000000       0.007
   0.13474289  0.12859456  0.00000000       0.007
   0.13199239  0.13335666  0.00000000       0.007
   0.12924190  0.13811875  0.00000000       0.007
   0.12649141  0.14288084  0.00000000       0.007
   0.12374091  0.14764293  0.00000000       0.007
   0.12099042  0.15240502  0.00000000       0.007
   0.11823992  0.15716711  0.00000000       0.007
   0.11548943  0.16192920  0.00000000       0.007
   0.11273893  0.16669129  0.00000000       0.007
   0.10998844  0.17145339  0.00000000       0.007
   0.10723794  0.17621548  0.00000000       0.007
   0.10448745  0.18097757  0.00000000       0.007
   0.10448745  0.18097757  0.00000000       0.007
   0.09898811  0.17145243  0.00000000       0.007
   0.09348877  0.16192730  0.00000000       0.007
   0.08798943  0.15240216  0.00000000       0.007
   0.08249009  0.14287703  0.00000000       0.007
   0.07699075  0.13335189  0.00000000       0.007
   0.07149141  0.12382676  0.00000000       0.007
   0.06599207  0.11430162  0.00000000       0.007
   0.06049273  0.10477649  0.00000000       0.007
   0.05499339  0.09525135  0.00000000       0.007
   0.04949405  0.08572622  0.00000000       0.007
   0.04399471  0.07620108  0.00000000       0.007
   0.03849538  0.06667595  0.00000000       0.007
   0.03299604  0.05715081  0.00000000       0.007
   0.02749670  0.04762568  0.00000000       0.007
   0.02199736  0.03810054  0.00000000       0.007
   0.01649802  0.02857541  0.00000000       0.007
   0.01099868  0.01905027  0.00000000       0.007
   0.00549934  0.00952514  0.00000000       0.007
   0.00000000  0.00000000  0.00000000       0.007
   0.00000000  0.00000000  0.00000000       0.007
   0.00000000  0.00000000  0.00085458       0.007
   0.00000000  0.00000000  0.00170915       0.007
   0.00000000  0.00000000  0.00256373       0.007
   0.00000000  0.00000000  0.00341830       0.007
   0.00000000  0.00000000  0.00427288       0.007
   0.00000000  0.00000000  0.00512745       0.007
   0.00000000  0.00000000  0.00598203       0.007
   0.00000000  0.00000000  0.00683661       0.007
   0.00000000  0.00000000  0.00769118       0.007
   0.00000000  0.00000000  0.00854576       0.007
   0.00000000  0.00000000  0.00940033       0.007
   0.00000000  0.00000000  0.01025491       0.007
   0.00000000  0.00000000  0.01110949       0.007
   0.00000000  0.00000000  0.01196406       0.007
   0.00000000  0.00000000  0.01281864       0.007
   0.00000000  0.00000000  0.01367321       0.007
   0.00000000  0.00000000  0.01452779       0.007
   0.00000000  0.00000000  0.01538236       0.007
   0.00000000  0.00000000  0.01623694       0.007
   0.00000000  0.00000000  0.01623694       0.007
   0.00824983  0.00476304  0.01623694       0.007
   0.01649967  0.00952609  0.01623694       0.007
   0.02474950  0.01428913  0.01623694       0.007
   0.03299934  0.01905218  0.01623694       0.007
   0.04124917  0.02381522  0.01623694       0.007
   0.04949900  0.02857826  0.01623694       0.007
   0.05774884  0.03334131  0.01623694       0.007
   0.06599867  0.03810435  0.01623694       0.007
   0.07424851  0.04286740  0.01623694       0.007
   0.08249834  0.04763044  0.01623694       0.007
   0.09074817  0.05239348  0.01623694       0.007
   0.09899801  0.05715653  0.01623694       0.007
   0.10724784  0.06191957  0.01623694       0.007
   0.11549768  0.06668261  0.01623694       0.007
   0.12374751  0.07144566  0.01623694       0.007
   0.13199734  0.07620870  0.01623694       0.007
   0.14024718  0.08097175  0.01623694       0.007
   0.14849701  0.08573479  0.01623694       0.007
   0.15674685  0.09049783  0.01623694       0.007
   0.15674685  0.09049783  0.01623694       0.007
   0.15399635  0.09525993  0.01623694       0.007
   0.15124586  0.10002202  0.01623694       0.007
   0.14849536  0.10478411  0.01623694       0.007
   0.14574487  0.10954620  0.01623694       0.007
   0.14299437  0.11430829  0.01623694       0.007
   0.14024388  0.11907038  0.01623694       0.007
   0.13749338  0.12383247  0.01623694       0.007
   0.13474289  0.12859456  0.01623694       0.007
   0.13199239  0.13335666  0.01623694       0.007
   0.12924190  0.13811875  0.01623694       0.007
   0.12649141  0.14288084  0.01623694       0.007
   0.12374091  0.14764293  0.01623694       0.007
   0.12099042  0.15240502  0.01623694       0.007
   0.11823992  0.15716711  0.01623694       0.007
   0.11548943  0.16192920  0.01623694       0.007
   0.11273893  0.16669129  0.01623694       0.007
   0.10998844  0.17145339  0.01623694       0.007
   0.10723794  0.17621548  0.01623694       0.007
   0.10448745  0.18097757  0.01623694       0.007
   0.10448745  0.18097757  0.01623694       0.007
   0.09898811  0.17145243  0.01623694       0.007
   0.09348877  0.16192730  0.01623694       0.007
   0.08798943  0.15240216  0.01623694       0.007
   0.08249009  0.14287703  0.01623694       0.007
   0.07699075  0.13335189  0.01623694       0.007
   0.07149141  0.12382676  0.01623694       0.007
   0.06599207  0.11430162  0.01623694       0.007
   0.06049273  0.10477649  0.01623694       0.007
   0.05499339  0.09525135  0.01623694       0.007
   0.04949405  0.08572622  0.01623694       0.007
   0.04399471  0.07620108  0.01623694       0.007
   0.03849538  0.06667595  0.01623694       0.007
   0.03299604  0.05715081  0.01623694       0.007
   0.02749670  0.04762568  0.01623694       0.007
   0.02199736  0.03810054  0.01623694       0.007
   0.01649802  0.02857541  0.01623694       0.007
   0.01099868  0.01905027  0.01623694       0.007
   0.00549934  0.00952514  0.01623694       0.007
   0.00000000  0.00000000  0.01623694       0.007
 
 k-points in reciprocal lattice and weights: HEX (hexagonal) G-M-K-G-A-L-H-A L-M K-H 
   0.00000000  0.00000000  0.00000000       0.007
   0.02631579  0.00000000  0.00000000       0.007
   0.05263158  0.00000000  0.00000000       0.007
   0.07894737  0.00000000  0.00000000       0.007
   0.10526316  0.00000000  0.00000000       0.007
   0.13157895  0.00000000  0.00000000       0.007
   0.15789474  0.00000000  0.00000000       0.007
   0.18421053  0.00000000  0.00000000       0.007
   0.21052632  0.00000000  0.00000000       0.007
   0.23684211  0.00000000  0.00000000       0.007
   0.26315789  0.00000000  0.00000000       0.007
   0.28947368  0.00000000  0.00000000       0.007
   0.31578947  0.00000000  0.00000000       0.007
   0.34210526  0.00000000  0.00000000       0.007
   0.36842105  0.00000000  0.00000000       0.007
   0.39473684  0.00000000  0.00000000       0.007
   0.42105263  0.00000000  0.00000000       0.007
   0.44736842  0.00000000  0.00000000       0.007
   0.47368421  0.00000000  0.00000000       0.007
   0.50000000  0.00000000  0.00000000       0.007
   0.50000000  0.00000000  0.00000000       0.007
   0.49122632  0.01754211  0.00000000       0.007
   0.48245263  0.03508421  0.00000000       0.007
   0.47367895  0.05262632  0.00000000       0.007
   0.46490526  0.07016842  0.00000000       0.007
   0.45613158  0.08771053  0.00000000       0.007
   0.44735789  0.10525263  0.00000000       0.007
   0.43858421  0.12279474  0.00000000       0.007
   0.42981053  0.14033684  0.00000000       0.007
   0.42103684  0.15787895  0.00000000       0.007
   0.41226316  0.17542105  0.00000000       0.007
   0.40348947  0.19296316  0.00000000       0.007
   0.39471579  0.21050526  0.00000000       0.007
   0.38594211  0.22804737  0.00000000       0.007
   0.37716842  0.24558947  0.00000000       0.007
   0.36839474  0.26313158  0.00000000       0.007
   0.35962105  0.28067368  0.00000000       0.007
   0.35084737  0.29821579  0.00000000       0.007
   0.34207368  0.31575789  0.00000000       0.007
   0.33330000  0.33330000  0.00000000       0.007
   0.33330000  0.33330000  0.00000000       0.007
   0.31575789  0.31575789  0.00000000       0.007
   0.29821579  0.29821579  0.00000000       0.007
   0.28067368  0.28067368  0.00000000       0.007
   0.26313158  0.26313158  0.00000000       0.007
   0.24558947  0.24558947  0.00000000       0.007
   0.22804737  0.22804737  0.00000000       0.007
   0.21050526  0.21050526  0.00000000       0.007
   0.19296316  0.19296316  0.00000000       0.007
   0.17542105  0.17542105  0.00000000       0.007
   0.15787895  0.15787895  0.00000000       0.007
   0.14033684  0.14033684  0.00000000       0.007
   0.12279474  0.12279474  0.00000000       0.007
   0.10525263  0.10525263  0.00000000       0.007
   0.08771053  0.08771053  0.00000000       0.007
   0.07016842  0.07016842  0.00000000       0.007
   0.05262632  0.05262632  0.00000000       0.007
   0.03508421  0.03508421  0.00000000       0.007
   0.01754211  0.01754211  0.00000000       0.007
   0.00000000  0.00000000  0.00000000       0.007
   0.00000000  0.00000000  0.00000000       0.007
   0.00000000  0.00000000  0.02631579       0.007
   0.00000000  0.00000000  0.05263158       0.007
   0.00000000  0.00000000  0.07894737       0.007
   0.00000000  0.00000000  0.10526316       0.007
   0.00000000  0.00000000  0.13157895       0.007
   0.00000000  0.00000000  0.15789474       0.007
   0.00000000  0.00000000  0.18421053       0.007
   0.00000000  0.00000000  0.21052632       0.007
   0.00000000  0.00000000  0.23684211       0.007
   0.00000000  0.00000000  0.26315789       0.007
   0.00000000  0.00000000  0.28947368       0.007
   0.00000000  0.00000000  0.31578947       0.007
   0.00000000  0.00000000  0.34210526       0.007
   0.00000000  0.00000000  0.36842105       0.007
   0.00000000  0.00000000  0.39473684       0.007
   0.00000000  0.00000000  0.42105263       0.007
   0.00000000  0.00000000  0.44736842       0.007
   0.00000000  0.00000000  0.47368421       0.007
   0.00000000  0.00000000  0.50000000       0.007
   0.00000000  0.00000000  0.50000000       0.007
   0.02631579  0.00000000  0.50000000       0.007
   0.05263158  0.00000000  0.50000000       0.007
   0.07894737  0.00000000  0.50000000       0.007
   0.10526316  0.00000000  0.50000000       0.007
   0.13157895  0.00000000  0.50000000       0.007
   0.15789474  0.00000000  0.50000000       0.007
   0.18421053  0.00000000  0.50000000       0.007
   0.21052632  0.00000000  0.50000000       0.007
   0.23684211  0.00000000  0.50000000       0.007
   0.26315789  0.00000000  0.50000000       0.007
   0.28947368  0.00000000  0.50000000       0.007
   0.31578947  0.00000000  0.50000000       0.007
   0.34210526  0.00000000  0.50000000       0.007
   0.36842105  0.00000000  0.50000000       0.007
   0.39473684  0.00000000  0.50000000       0.007
   0.42105263  0.00000000  0.50000000       0.007
   0.44736842  0.00000000  0.50000000       0.007
   0.47368421  0.00000000  0.50000000       0.007
   0.50000000  0.00000000  0.50000000       0.007
   0.50000000  0.00000000  0.50000000       0.007
   0.49122632  0.01754211  0.50000000       0.007
   0.48245263  0.03508421  0.50000000       0.007
   0.47367895  0.05262632  0.50000000       0.007
   0.46490526  0.07016842  0.50000000       0.007
   0.45613158  0.08771053  0.50000000       0.007
   0.44735789  0.10525263  0.50000000       0.007
   0.43858421  0.12279474  0.50000000       0.007
   0.42981053  0.14033684  0.50000000       0.007
   0.42103684  0.15787895  0.50000000       0.007
   0.41226316  0.17542105  0.50000000       0.007
   0.40348947  0.19296316  0.50000000       0.007
   0.39471579  0.21050526  0.50000000       0.007
   0.38594211  0.22804737  0.50000000       0.007
   0.37716842  0.24558947  0.50000000       0.007
   0.36839474  0.26313158  0.50000000       0.007
   0.35962105  0.28067368  0.50000000       0.007
   0.35084737  0.29821579  0.50000000       0.007
   0.34207368  0.31575789  0.50000000       0.007
   0.33330000  0.33330000  0.50000000       0.007
   0.33330000  0.33330000  0.50000000       0.007
   0.31575789  0.31575789  0.50000000       0.007
   0.29821579  0.29821579  0.50000000       0.007
   0.28067368  0.28067368  0.50000000       0.007
   0.26313158  0.26313158  0.50000000       0.007
   0.24558947  0.24558947  0.50000000       0.007
   0.22804737  0.22804737  0.50000000       0.007
   0.21050526  0.21050526  0.50000000       0.007
   0.19296316  0.19296316  0.50000000       0.007
   0.17542105  0.17542105  0.50000000       0.007
   0.15787895  0.15787895  0.50000000       0.007
   0.14033684  0.14033684  0.50000000       0.007
   0.12279474  0.12279474  0.50000000       0.007
   0.10525263  0.10525263  0.50000000       0.007
   0.08771053  0.08771053  0.50000000       0.007
   0.07016842  0.07016842  0.50000000       0.007
   0.05262632  0.05262632  0.50000000       0.007
   0.03508421  0.03508421  0.50000000       0.007
   0.01754211  0.01754211  0.50000000       0.007
   0.00000000  0.00000000  0.50000000       0.007
 
 position of ions in fractional coordinates (direct lattice) 
   0.33333300  0.66666700  0.12046214
   0.66666700  0.33333300  0.06984045
   0.66666600  0.33333300  0.17108384
 
 position of ions in cartesian coordinates  (Angst):
  -0.00000160  1.84166562  3.70950873
   1.59493001  0.92083143  2.15066543
   1.59492682  0.92083143  5.26835203
 


--------------------------------------------------------------------------------------------------------


 k-point  1 :   0.0000 0.0000 0.0000  plane waves:    5987
 k-point  2 :   0.0263 0.0000 0.0000  plane waves:    5993
 k-point  3 :   0.0526 0.0000 0.0000  plane waves:    5975
 k-point  4 :   0.0789 0.0000 0.0000  plane waves:    5965
 k-point  5 :   0.1053 0.0000 0.0000  plane waves:    5969
 k-point  6 :   0.1316 0.0000 0.0000  plane waves:    5971
 k-point  7 :   0.1579 0.0000 0.0000  plane waves:    5957
 k-point  8 :   0.1842 0.0000 0.0000  plane waves:    5939
 k-point  9 :   0.2105 0.0000 0.0000  plane waves:    5913
 k-point 10 :   0.2368 0.0000 0.0000  plane waves:    5892
 k-point 11 :   0.2632 0.0000 0.0000  plane waves:    5898
 k-point 12 :   0.2895 0.0000 0.0000  plane waves:    5892
 k-point 13 :   0.3158 0.0000 0.0000  plane waves:    5874
 k-point 14 :   0.3421 0.0000 0.0000  plane waves:    5874
 k-point 15 :   0.3684 0.0000 0.0000  plane waves:    5872
 k-point 16 :   0.3947 0.0000 0.0000  plane waves:    5866
 k-point 17 :   0.4211 0.0000 0.0000  plane waves:    5848
 k-point 18 :   0.4474 0.0000 0.0000  plane waves:    5820
 k-point 19 :   0.4737 0.0000 0.0000  plane waves:    5806
 k-point 20 :   0.5000 0.0000 0.0000  plane waves:    5812
 k-point 21 :   0.5000 0.0000 0.0000  plane waves:    5812
 k-point 22 :   0.4912 0.0175 0.0000  plane waves:    5802
 k-point 23 :   0.4825 0.0351 0.0000  plane waves:    5804
 k-point 24 :   0.4737 0.0526 0.0000  plane waves:    5822
 k-point 25 :   0.4649 0.0702 0.0000  plane waves:    5818
 k-point 26 :   0.4561 0.0877 0.0000  plane waves:    5830
 k-point 27 :   0.4474 0.1053 0.0000  plane waves:    5826
 k-point 28 :   0.4386 0.1228 0.0000  plane waves:    5826
 k-point 29 :   0.4298 0.1403 0.0000  plane waves:    5816
 k-point 30 :   0.4210 0.1579 0.0000  plane waves:    5836
 k-point 31 :   0.4123 0.1754 0.0000  plane waves:    5844
 k-point 32 :   0.4035 0.1930 0.0000  plane waves:    5848
 k-point 33 :   0.3947 0.2105 0.0000  plane waves:    5846
 k-point 34 :   0.3859 0.2280 0.0000  plane waves:    5848
 k-point 35 :   0.3772 0.2456 0.0000  plane waves:    5862
 k-point 36 :   0.3684 0.2631 0.0000  plane waves:    5862
 k-point 37 :   0.3596 0.2807 0.0000  plane waves:    5874
 k-point 38 :   0.3508 0.2982 0.0000  plane waves:    5876
 k-point 39 :   0.3421 0.3158 0.0000  plane waves:    5890
 k-point 40 :   0.3333 0.3333 0.0000  plane waves:    5880
 k-point 41 :   0.3333 0.3333 0.0000  plane waves:    5880
 k-point 42 :   0.3158 0.3158 0.0000  plane waves:    5882
 k-point 43 :   0.2982 0.2982 0.0000  plane waves:    5872
 k-point 44 :   0.2807 0.2807 0.0000  plane waves:    5870
 k-point 45 :   0.2631 0.2631 0.0000  plane waves:    5870
 k-point 46 :   0.2456 0.2456 0.0000  plane waves:    5862
 k-point 47 :   0.2280 0.2280 0.0000  plane waves:    5899
 k-point 48 :   0.2105 0.2105 0.0000  plane waves:    5887
 k-point 49 :   0.1930 0.1930 0.0000  plane waves:    5885
 k-point 50 :   0.1754 0.1754 0.0000  plane waves:    5879
 k-point 51 :   0.1579 0.1579 0.0000  plane waves:    5893
 k-point 52 :   0.1403 0.1403 0.0000  plane waves:    5909
 k-point 53 :   0.1228 0.1228 0.0000  plane waves:    5923
 k-point 54 :   0.1053 0.1053 0.0000  plane waves:    5939
 k-point 55 :   0.0877 0.0877 0.0000  plane waves:    5955
 k-point 56 :   0.0702 0.0702 0.0000  plane waves:    5967
 k-point 57 :   0.0526 0.0526 0.0000  plane waves:    5977
 k-point 58 :   0.0351 0.0351 0.0000  plane waves:    5987
 k-point 59 :   0.0175 0.0175 0.0000  plane waves:    5997
 k-point 60 :   0.0000 0.0000 0.0000  plane waves:    5987
 k-point 61 :   0.0000 0.0000 0.0000  plane waves:    5987
 k-point 62 :   0.0000 0.0000 0.0263  plane waves:    5987
 k-point 63 :   0.0000 0.0000 0.0526  plane waves:    5999
 k-point 64 :   0.0000 0.0000 0.0789  plane waves:    5999
 k-point 65 :   0.0000 0.0000 0.1053  plane waves:    5981
 k-point 66 :   0.0000 0.0000 0.1316  plane waves:    5981
 k-point 67 :   0.0000 0.0000 0.1579  plane waves:    5975
 k-point 68 :   0.0000 0.0000 0.1842  plane waves:    5987
 k-point 69 :   0.0000 0.0000 0.2105  plane waves:    5987
 k-point 70 :   0.0000 0.0000 0.2368  plane waves:    5987
 k-point 71 :   0.0000 0.0000 0.2632  plane waves:    5987
 k-point 72 :   0.0000 0.0000 0.2895  plane waves:    5986
 k-point 73 :   0.0000 0.0000 0.3158  plane waves:    5992
 k-point 74 :   0.0000 0.0000 0.3421  plane waves:    5992
 k-point 75 :   0.0000 0.0000 0.3684  plane waves:    5986
 k-point 76 :   0.0000 0.0000 0.3947  plane waves:    5980
 k-point 77 :   0.0000 0.0000 0.4211  plane waves:    5980
 k-point 78 :   0.0000 0.0000 0.4474  plane waves:    5980
 k-point 79 :   0.0000 0.0000 0.4737  plane waves:    5974
 k-point 80 :   0.0000 0.0000 0.5000  plane waves:    5974
 k-point 81 :   0.0000 0.0000 0.5000  plane waves:    5974
 k-point 82 :   0.0263 0.0000 0.5000  plane waves:    5976
 k-point 83 :   0.0526 0.0000 0.5000  plane waves:    5986
 k-point 84 :   0.0789 0.0000 0.5000  plane waves:    5982
 k-point 85 :   0.1053 0.0000 0.5000  plane waves:    5972
 k-point 86 :   0.1316 0.0000 0.5000  plane waves:    5962
 k-point 87 :   0.1579 0.0000 0.5000  plane waves:    5942
 k-point 88 :   0.1842 0.0000 0.5000  plane waves:    5936
 k-point 89 :   0.2105 0.0000 0.5000  plane waves:    5906
 k-point 90 :   0.2368 0.0000 0.5000  plane waves:    5928
 k-point 91 :   0.2632 0.0000 0.5000  plane waves:    5914
 k-point 92 :   0.2895 0.0000 0.5000  plane waves:    5890
 k-point 93 :   0.3158 0.0000 0.5000  plane waves:    5892
 k-point 94 :   0.3421 0.0000 0.5000  plane waves:    5874
 k-point 95 :   0.3684 0.0000 0.5000  plane waves:    5862
 k-point 96 :   0.3947 0.0000 0.5000  plane waves:    5838
 k-point 97 :   0.4211 0.0000 0.5000  plane waves:    5842
 k-point 98 :   0.4474 0.0000 0.5000  plane waves:    5816
 k-point 99 :   0.4737 0.0000 0.5000  plane waves:    5802
 k-point ** :   0.5000 0.0000 0.5000  plane waves:    5804
 k-point ** :   0.5000 0.0000 0.5000  plane waves:    5804
 k-point ** :   0.4912 0.0175 0.5000  plane waves:    5786
 k-point ** :   0.4825 0.0351 0.5000  plane waves:    5788
 k-point ** :   0.4737 0.0526 0.5000  plane waves:    5808
 k-point ** :   0.4649 0.0702 0.5000  plane waves:    5814
 k-point ** :   0.4561 0.0877 0.5000  plane waves:    5822
 k-point ** :   0.4474 0.1053 0.5000  plane waves:    5826
 k-point ** :   0.4386 0.1228 0.5000  plane waves:    5830
 k-point ** :   0.4298 0.1403 0.5000  plane waves:    5842
 k-point ** :   0.4210 0.1579 0.5000  plane waves:    5848
 k-point ** :   0.4123 0.1754 0.5000  plane waves:    5850
 k-point ** :   0.4035 0.1930 0.5000  plane waves:    5856
 k-point ** :   0.3947 0.2105 0.5000  plane waves:    5868
 k-point ** :   0.3859 0.2280 0.5000  plane waves:    5868
 k-point ** :   0.3772 0.2456 0.5000  plane waves:    5880
 k-point ** :   0.3684 0.2631 0.5000  plane waves:    5878
 k-point ** :   0.3596 0.2807 0.5000  plane waves:    5890
 k-point ** :   0.3508 0.2982 0.5000  plane waves:    5886
 k-point ** :   0.3421 0.3158 0.5000  plane waves:    5882
 k-point ** :   0.3333 0.3333 0.5000  plane waves:    5868
 k-point ** :   0.3333 0.3333 0.5000  plane waves:    5868
 k-point ** :   0.3158 0.3158 0.5000  plane waves:    5886
 k-point ** :   0.2982 0.2982 0.5000  plane waves:    5864
 k-point ** :   0.2807 0.2807 0.5000  plane waves:    5872
 k-point ** :   0.2631 0.2631 0.5000  plane waves:    5862
 k-point ** :   0.2456 0.2456 0.5000  plane waves:    5858
 k-point ** :   0.2280 0.2280 0.5000  plane waves:    5876
 k-point ** :   0.2105 0.2105 0.5000  plane waves:    5894
 k-point ** :   0.1930 0.1930 0.5000  plane waves:    5904
 k-point ** :   0.1754 0.1754 0.5000  plane waves:    5898
 k-point ** :   0.1579 0.1579 0.5000  plane waves:    5890
 k-point ** :   0.1403 0.1403 0.5000  plane waves:    5890
 k-point ** :   0.1228 0.1228 0.5000  plane waves:    5898
 k-point ** :   0.1053 0.1053 0.5000  plane waves:    5938
 k-point ** :   0.0877 0.0877 0.5000  plane waves:    5950
 k-point ** :   0.0702 0.0702 0.5000  plane waves:    5962
 k-point ** :   0.0526 0.0526 0.5000  plane waves:    5968
 k-point ** :   0.0351 0.0351 0.5000  plane waves:    5974
 k-point ** :   0.0175 0.0175 0.5000  plane waves:    5984
 k-point ** :   0.0000 0.0000 0.5000  plane waves:    5974

 maximum and minimum number of plane-waves per node :      3001     2881

 maximum number of plane-waves:      5999
 maximum index in each direction: 
   IXMAX=    5   IYMAX=    5   IZMAX=   53
   IXMIN=   -6   IYMIN=   -5   IZMIN=  -53


 parallel 3D FFT for wavefunctions:
    minimum data exchange during FFTs selected (reduces bandwidth)
 parallel 3D FFT for charge:
    minimum data exchange during FFTs selected (reduces bandwidth)


 total amount of memory used by VASP MPI-rank0   225376. kBytes
=======================================================================

   base      :      30000. kBytes
   nonl-proj :     121184. kBytes
   fftplans  :      10209. kBytes
   grid      :      16473. kBytes
   one-center:         31. kBytes
   wavefun   :      47479. kBytes
 
     INWAV:  cpu time    0.0000: real time    0.0005
 initial charge density was supplied:
 number of electron      18.0000005 magnetization 
 keeping initial charge density in first step


--------------------------------------------------------------------------------------------------------


 Maximum index for augmentation-charges         7169 (set IRDMAX)


--------------------------------------------------------------------------------------------------------


 First call to EWALD:  gamma=   0.274
 Maximum number of real-space cells 6x 6x 1
 Maximum number of reciprocal cells 2x 2x11

    FEWALD:  cpu time    0.0010: real time    0.0015


--------------------------------------- Iteration      1(   1)  ---------------------------------------


    POTLOK:  cpu time    0.1540: real time    0.1873
    SETDIJ:  cpu time    0.0060: real time    0.0053
     EDDAV:  cpu time    7.5878: real time    7.5906
       DOS:  cpu time    0.0220: real time    0.0228
    --------------------------------------------
      LOOP:  cpu time    7.7698: real time    7.8060

 eigenvalue-minimisations  :  3920
 total energy-change (2. order) : 0.1243598E+03  (-0.4792164E+03)
 number of electron      18.0000005 magnetization 
 augmentation part       18.0000005 magnetization 

 Free energy of the ion-electron system (eV)
  ---------------------------------------------------
  alpha Z        PSCENC =        10.92610231
  Ewald energy   TEWEN  =      5354.53473861
  -Hartree energ DENC   =     -6041.40236045
  -exchange      EXHF   =         0.00000000
  -V(xc)+E(xc)   XCENC  =       -35.17117045
  PAW double counting   =       473.39069734     -397.59830514
  entropy T*S    EENTRO =        -0.03846679
  eigenvalues    EBANDS =       -11.43654972
  atomic energy  EATOM  =       771.15511399
  Solvation  Ediel_sol  =         0.00000000
  ---------------------------------------------------
  free energy    TOTEN  =       124.35979970 eV

  energy without entropy =      124.39826649  energy(sigma->0) =      124.37903309


--------------------------------------------------------------------------------------------------------




--------------------------------------- Iteration      1(   2)  ---------------------------------------


     EDDAV:  cpu time   11.6722: real time   11.6727
       DOS:  cpu time    0.0210: real time    0.0208
    --------------------------------------------
      LOOP:  cpu time   11.6932: real time   11.6935

 eigenvalue-minimisations  :  6984
 total energy-change (2. order) :-0.1294425E+03  (-0.1173119E+03)
 number of electron      18.0000005 magnetization 
 augmentation part       18.0000005 magnetization 

 Free energy of the ion-electron system (eV)
  ---------------------------------------------------
  alpha Z        PSCENC =        10.92610231
  Ewald energy   TEWEN  =      5354.53473861
  -Hartree energ DENC   =     -6041.40236045
  -exchange      EXHF   =         0.00000000
  -V(xc)+E(xc)   XCENC  =       -35.17117045
  PAW double counting   =       473.39069734     -397.59830514
  entropy T*S    EENTRO =        -0.00165730
  eigenvalues    EBANDS =      -140.91582575
  atomic energy  EATOM  =       771.15511399
  Solvation  Ediel_sol  =         0.00000000
  ---------------------------------------------------
  free energy    TOTEN  =        -5.08266684 eV

  energy without entropy =       -5.08100954  energy(sigma->0) =       -5.08183819


--------------------------------------------------------------------------------------------------------




--------------------------------------- Iteration      1(   3)  ---------------------------------------


     EDDAV:  cpu time    9.4106: real time    9.4137
       DOS:  cpu time    0.0230: real time    0.0221
    --------------------------------------------
      LOOP:  cpu time    9.4336: real time    9.4358

 eigenvalue-minimisations  :  5332
 total energy-change (2. order) :-0.1536171E+02  (-0.1516244E+02)
 number of electron      18.0000005 magnetization 
 augmentation part       18.0000005 magnetization 

 Free energy of the ion-electron system (eV)
  ---------------------------------------------------
  alpha Z        PSCENC =        10.92610231
  Ewald energy   TEWEN  =      5354.53473861
  -Hartree energ DENC   =     -6041.40236045
  -exchange      EXHF   =         0.00000000
  -V(xc)+E(xc)   XCENC  =       -35.17117045
  PAW double counting   =       473.39069734     -397.59830514
  entropy T*S    EENTRO =        -0.00000000
  eigenvalues    EBANDS =      -156.27919089
  atomic energy  EATOM  =       771.15511399
  Solvation  Ediel_sol  =         0.00000000
  ---------------------------------------------------
  free energy    TOTEN  =       -20.44437468 eV

  energy without entropy =      -20.44437468  energy(sigma->0) =      -20.44437468


--------------------------------------------------------------------------------------------------------




--------------------------------------- Iteration      1(   4)  ---------------------------------------


     EDDAV:  cpu time    9.1366: real time    9.1369
       DOS:  cpu time    0.0220: real time    0.0221
    --------------------------------------------
      LOOP:  cpu time    9.1586: real time    9.1590

 eigenvalue-minimisations  :  5102
 total energy-change (2. order) :-0.3263741E+00  (-0.3229311E+00)
 number of electron      18.0000005 magnetization 
 augmentation part       18.0000005 magnetization 

 Free energy of the ion-electron system (eV)
  ---------------------------------------------------
  alpha Z        PSCENC =        10.92610231
  Ewald energy   TEWEN  =      5354.53473861
  -Hartree energ DENC   =     -6041.40236045
  -exchange      EXHF   =         0.00000000
  -V(xc)+E(xc)   XCENC  =       -35.17117045
  PAW double counting   =       473.39069734     -397.59830514
  entropy T*S    EENTRO =        -0.00000000
  eigenvalues    EBANDS =      -156.60556499
  atomic energy  EATOM  =       771.15511399
  Solvation  Ediel_sol  =         0.00000000
  ---------------------------------------------------
  free energy    TOTEN  =       -20.77074878 eV

  energy without entropy =      -20.77074878  energy(sigma->0) =      -20.77074878


--------------------------------------------------------------------------------------------------------




--------------------------------------- Iteration      1(   5)  ---------------------------------------


     EDDAV:  cpu time    9.0296: real time    9.0305
       DOS:  cpu time    0.0220: real time    0.0221
    --------------------------------------------
      LOOP:  cpu time    9.0516: real time    9.0526

 eigenvalue-minimisations  :  5048
 total energy-change (2. order) :-0.8410032E-02  (-0.8384426E-02)
 number of electron      18.0000005 magnetization 
 augmentation part       18.0000005 magnetization 

 Free energy of the ion-electron system (eV)
  ---------------------------------------------------
  alpha Z        PSCENC =        10.92610231
  Ewald energy   TEWEN  =      5354.53473861
  -Hartree energ DENC   =     -6041.40236045
  -exchange      EXHF   =         0.00000000
  -V(xc)+E(xc)   XCENC  =       -35.17117045
  PAW double counting   =       473.39069734     -397.59830514
  entropy T*S    EENTRO =        -0.00000000
  eigenvalues    EBANDS =      -156.61397502
  atomic energy  EATOM  =       771.15511399
  Solvation  Ediel_sol  =         0.00000000
  ---------------------------------------------------
  free energy    TOTEN  =       -20.77915881 eV

  energy without entropy =      -20.77915881  energy(sigma->0) =      -20.77915881


--------------------------------------------------------------------------------------------------------




--------------------------------------- Iteration      1(   6)  ---------------------------------------


    EDDIAG:  cpu time    1.6178: real time    1.6200
  RMM-DIIS:  cpu time    7.0359: real time    7.0334
    ORTHCH:  cpu time    0.0700: real time    0.0712
       DOS:  cpu time    0.0230: real time    0.0222
    --------------------------------------------
      LOOP:  cpu time    8.7467: real time    8.7468

 eigenvalue-minimisations  :  4067
 total energy-change (2. order) :-0.2648735E-03  (-0.2648735E-03)
 number of electron      18.0000005 magnetization 
 augmentation part       18.0000005 magnetization 

 Free energy of the ion-electron system (eV)
  ---------------------------------------------------
  alpha Z        PSCENC =        10.92610231
  Ewald energy   TEWEN  =      5354.53473861
  -Hartree energ DENC   =     -6041.40236045
  -exchange      EXHF   =         0.00000000
  -V(xc)+E(xc)   XCENC  =       -35.17117045
  PAW double counting   =       473.39069734     -397.59830514
  entropy T*S    EENTRO =        -0.00000000
  eigenvalues    EBANDS =      -156.61423989
  atomic energy  EATOM  =       771.15511399
  Solvation  Ediel_sol  =         0.00000000
  ---------------------------------------------------
  free energy    TOTEN  =       -20.77942368 eV

  energy without entropy =      -20.77942368  energy(sigma->0) =      -20.77942368


--------------------------------------------------------------------------------------------------------




--------------------------------------- Iteration      1(   7)  ---------------------------------------


    EDDIAG:  cpu time    1.6258: real time    1.6301
  RMM-DIIS:  cpu time    9.4816: real time    9.4796
    ORTHCH:  cpu time    0.0690: real time    0.0700
       DOS:  cpu time    0.0230: real time    0.0221
    --------------------------------------------
      LOOP:  cpu time   11.1993: real time   11.2018

 eigenvalue-minimisations  :  5610
 total energy-change (2. order) :-0.3253015E-04  (-0.3256581E-04)
 number of electron      18.0000005 magnetization 
 augmentation part       18.0000005 magnetization 

 Free energy of the ion-electron system (eV)
  ---------------------------------------------------
  alpha Z        PSCENC =        10.92610231
  Ewald energy   TEWEN  =      5354.53473861
  -Hartree energ DENC   =     -6041.40236045
  -exchange      EXHF   =         0.00000000
  -V(xc)+E(xc)   XCENC  =       -35.17117045
  PAW double counting   =       473.39069734     -397.59830514
  entropy T*S    EENTRO =        -0.00000000
  eigenvalues    EBANDS =      -156.61427242
  atomic energy  EATOM  =       771.15511399
  Solvation  Ediel_sol  =         0.00000000
  ---------------------------------------------------
  free energy    TOTEN  =       -20.77945621 eV

  energy without entropy =      -20.77945621  energy(sigma->0) =      -20.77945621


--------------------------------------------------------------------------------------------------------




--------------------------------------- Iteration      1(   8)  ---------------------------------------


    EDDIAG:  cpu time    1.6248: real time    1.6262
  RMM-DIIS:  cpu time    6.0251: real time    6.0234
    ORTHCH:  cpu time    0.0700: real time    0.0703
       DOS:  cpu time    0.0220: real time    0.0221
    --------------------------------------------
      LOOP:  cpu time    7.7418: real time    7.7420

 eigenvalue-minimisations  :  3165
 total energy-change (2. order) : 0.4308604E-06  (-0.1458532E-06)
 number of electron      18.0000005 magnetization 
 augmentation part       18.0000005 magnetization 

 Free energy of the ion-electron system (eV)
  ---------------------------------------------------
  alpha Z        PSCENC =        10.92610231
  Ewald energy   TEWEN  =      5354.53473861
  -Hartree energ DENC   =     -6041.40236045
  -exchange      EXHF   =         0.00000000
  -V(xc)+E(xc)   XCENC  =       -35.17117045
  PAW double counting   =       473.39069734     -397.59830514
  entropy T*S    EENTRO =        -0.00000000
  eigenvalues    EBANDS =      -156.61427199
  atomic energy  EATOM  =       771.15511399
  Solvation  Ediel_sol  =         0.00000000
  ---------------------------------------------------
  free energy    TOTEN  =       -20.77945578 eV

  energy without entropy =      -20.77945578  energy(sigma->0) =      -20.77945578


--------------------------------------------------------------------------------------------------------




 average (electrostatic) potential at core
  the test charge radii are     1.2296  0.9698
  (the norm of the test charge is              1.0000)
       1 -47.1885       2 -95.0370       3 -95.0361
 
 
 
 E-fermi :  -2.9188     XC(G=0):  -2.4770     alpha+bet : -2.3288


 k-point     1 :       0.0000    0.0000    0.0000
  band No.  band energies     occupation 
      1     -17.8056      2.00000
      2     -16.5772      2.00000
      3      -9.3248      2.00000
      4      -6.3797      2.00000
      5      -6.3797      2.00000
      6      -5.4675      2.00000
      7      -5.2594      2.00000
      8      -5.2593      2.00000
      9      -3.7482      2.00000
     10      -0.9819      0.00000
     11      -0.9819      0.00000
     12      -0.7468      0.00000
     13      -0.7467      0.00000
     14       1.6737      0.00000

 k-point     2 :       0.0263    0.0000    0.0000
  band No.  band energies     occupation 
      1     -17.7958      2.00000
      2     -16.5726      2.00000
      3      -9.3132      2.00000
      4      -6.4032      2.00000
      5      -6.3689      2.00000
      6      -5.5740      2.00000
      7      -5.2765      2.00000
      8      -5.1673      2.00000
      9      -3.7529      2.00000
     10      -0.9996      0.00000
     11      -0.9634      0.00000
     12      -0.7786      0.00000
     13      -0.7589      0.00000
     14       1.6890      0.00000

 k-point     3 :       0.0526    0.0000    0.0000
  band No.  band energies     occupation 
      1     -17.7667      2.00000
      2     -16.5588      2.00000
      3      -9.2786      2.00000
      4      -6.4717      2.00000
      5      -6.3366      2.00000
      6      -5.7522      2.00000
      7      -5.3264      2.00000
      8      -5.0335      2.00000
      9      -3.7679      2.00000
     10      -1.0471      0.00000
     11      -0.9095      0.00000
     12      -0.8673      0.00000
     13      -0.7943      0.00000
     14       1.7515      0.00000

 k-point     4 :       0.0789    0.0000    0.0000
  band No.  band energies     occupation 
      1     -17.7186      2.00000
      2     -16.5361      2.00000
      3      -9.2226      2.00000
      4      -6.5800      2.00000
      5      -6.2836      2.00000
      6      -5.9454      2.00000
      7      -5.4053      2.00000
      8      -4.9188      2.00000
      9      -3.7961      2.00000
     10      -1.1093      0.00000
     11      -0.9954      0.00000
     12      -0.8503      0.00000
     13      -0.8248      0.00000
     14       1.8363      0.00000

 k-point     5 :       0.1053    0.0000    0.0000
  band No.  band energies     occupation 
      1     -17.6522      2.00000
      2     -16.5047      2.00000
      3      -9.1477      2.00000
      4      -6.7199      2.00000
      5      -6.2108      2.00000
      6      -6.1451      2.00000
      7      -5.5074      2.00000
      8      -4.8371      2.00000
      9      -3.8418      2.00000
     10      -1.1663      0.00000
     11      -1.1416      0.00000
     12      -0.9231      0.00000
     13      -0.7159      0.00000
     14       2.0019      0.00000

 k-point     6 :       0.1316    0.0000    0.0000
  band No.  band energies     occupation 
      1     -17.5686      2.00000
      2     -16.4653      2.00000
      3      -9.0579      2.00000
      4      -6.8819      2.00000
      5      -6.3487      2.00000
      6      -6.1199      2.00000
      7      -5.6268      2.00000
      8      -4.7954      2.00000
      9      -3.9097      2.00000
     10      -1.2854      0.00000
     11      -1.1989      0.00000
     12      -1.0079      0.00000
     13      -0.5903      0.00000
     14       2.0804      0.00000

 k-point     7 :       0.1579    0.0000    0.0000
  band No.  band energies     occupation 
      1     -17.4690      2.00000
      2     -16.4185      2.00000
      3      -8.9595      2.00000
      4      -7.0548      2.00000
      5      -6.5548      2.00000
      6      -6.0129      2.00000
      7      -5.7574      2.00000
      8      -4.7962      2.00000
      9      -4.0030      2.00000
     10      -1.4097      0.00000
     11      -1.1936      0.00000
     12      -1.0997      0.00000
     13      -0.4554      0.00000
     14       2.2206      0.00000

 k-point     8 :       0.1842    0.0000    0.0000
  band No.  band energies     occupation 
      1     -17.3551      2.00000
      2     -16.3651      2.00000
      3      -8.8618      2.00000
      4      -7.2265      2.00000
      5      -6.7626      2.00000
      6      -5.8938      2.00000
      7      -5.8923      2.00000
      8      -4.8360      2.00000
      9      -4.1209      2.00000
     10      -1.5027      0.00000
     11      -1.1934      0.00000
     12      -1.1448      0.00000
     13      -0.3178      0.00000
     14       2.4050      0.00000

 k-point     9 :       0.2105    0.0000    0.0000
  band No.  band energies     occupation 
      1     -17.2289      2.00000
      2     -16.3061      2.00000
      3      -8.7789      2.00000
      4      -7.3824      2.00000
      5      -6.9710      2.00000
      6      -6.0313      2.00000
      7      -5.7613      2.00000
      8      -4.9063      2.00000
      9      -4.2571      2.00000
     10      -1.5591      0.00000
     11      -1.2844      0.00000
     12      -1.0547      0.00000
     13      -0.1833      0.00000
     14       2.5571      0.00000

 k-point    10 :       0.2368    0.0000    0.0000
  band No.  band energies     occupation 
      1     -17.0927      2.00000
      2     -16.2428      2.00000
      3      -8.7289      2.00000
      4      -7.5067      2.00000
      5      -7.1788      2.00000
      6      -6.1663      2.00000
      7      -5.6235      2.00000
      8      -4.9961      2.00000
      9      -4.3992      2.00000
     10      -1.5794      0.00000
     11      -1.3685      0.00000
     12      -0.9310      0.00000
     13      -0.0562      0.00000
     14       2.7488      0.00000

 k-point    11 :       0.2632    0.0000    0.0000
  band No.  band energies     occupation 
      1     -16.9494      2.00000
      2     -16.1767      2.00000
      3      -8.7294      2.00000
      4      -7.5867      2.00000
      5      -7.3838      2.00000
      6      -6.2955      2.00000
      7      -5.4828      2.00000
      8      -5.0947      2.00000
      9      -4.5311      2.00000
     10      -1.5681      0.00000
     11      -1.4422      0.00000
     12      -0.7839      0.00000
     13       0.0602      0.00000
     14       2.9528      0.00000

 k-point    12 :       0.2895    0.0000    0.0000
  band No.  band energies     occupation 
      1     -16.8023      2.00000
      2     -16.1094      2.00000
      3      -8.7849      2.00000
      4      -7.6243      2.00000
      5      -7.5833      2.00000
      6      -6.4163      2.00000
      7      -5.3437      2.00000
      8      -5.1931      2.00000
      9      -4.6356      2.00000
     10      -1.5315      0.00000
     11      -1.5029      0.00000
     12      -0.6242      0.00000
     13       0.1638      0.00000
     14       3.1596      0.00000

 k-point    13 :       0.3158    0.0000    0.0000
  band No.  band energies     occupation 
      1     -16.6551      2.00000
      2     -16.0426      2.00000
      3      -8.8822      2.00000
      4      -7.7736      2.00000
      5      -7.6384      2.00000
      6      -6.5269      2.00000
      7      -5.2851      2.00000
      8      -5.2107      2.00000
      9      -4.6988      2.00000
     10      -1.5487      0.00000
     11      -1.4761      0.00000
     12      -0.4623      0.00000
     13       0.2535      0.00000
     14       3.3607      0.00000

 k-point    14 :       0.3421    0.0000    0.0000
  band No.  band energies     occupation 
      1     -16.5121      2.00000
      2     -15.9785      2.00000
      3      -9.0013      2.00000
      4      -7.9507      2.00000
      5      -7.6507      2.00000
      6      -6.6254      2.00000
      7      -5.3669      2.00000
      8      -5.0880      2.00000
      9      -4.7132      2.00000
     10      -1.5793      0.00000
     11      -1.4079      0.00000
     12      -0.3074      0.00000
     13       0.3292      0.00000
     14       3.5187      0.00000

 k-point    15 :       0.3684    0.0000    0.0000
  band No.  band energies     occupation 
      1     -16.3783      2.00000
      2     -15.9192      2.00000
      3      -9.1250      2.00000
      4      -8.1102      2.00000
      5      -7.6733      2.00000
      6      -6.7108      2.00000
      7      -5.4363      2.00000
      8      -4.9796      2.00000
      9      -4.6816      2.00000
     10      -1.5957      0.00000
     11      -1.3324      0.00000
     12      -0.1676      0.00000
     13       0.3912      0.00000
     14       3.4419      0.00000

 k-point    16 :       0.3947    0.0000    0.0000
  band No.  band energies     occupation 
      1     -16.2586      2.00000
      2     -15.8668      2.00000
      3      -9.2410      2.00000
      4      -8.2478      2.00000
      5      -7.7068      2.00000
      6      -6.7818      2.00000
      7      -5.4926      2.00000
      8      -4.8884      2.00000
      9      -4.6160      2.00000
     10      -1.6002      0.00000
     11      -1.2552      0.00000
     12      -0.0489      0.00000
     13       0.4402      0.00000
     14       3.1648      0.00000

 k-point    17 :       0.4211    0.0000    0.0000
  band No.  band energies     occupation 
      1     -16.1584      2.00000
      2     -15.8234      2.00000
      3      -9.3406      2.00000
      4      -8.3596      2.00000
      5      -7.7448      2.00000
      6      -6.8378      2.00000
      7      -5.5358      2.00000
      8      -4.8163      2.00000
      9      -4.5348      2.00000
     10      -1.5968      0.00000
     11      -1.1821      0.00000
     12       0.0445      0.00000
     13       0.4771      0.00000
     14       2.8751      0.00000

 k-point    18 :       0.4474    0.0000    0.0000
  band No.  band energies     occupation 
      1     -16.0826      2.00000
      2     -15.7908      2.00000
      3      -9.4168      2.00000
      4      -8.4420      2.00000
      5      -7.7792      2.00000
      6      -6.8782      2.00000
      7      -5.5662      2.00000
      8      -4.7645      2.00000
      9      -4.4583      2.00000
     10      -1.5899      0.00000
     11      -1.1204      0.00000
     12       0.1111      0.00000
     13       0.5027      0.00000
     14       2.6373      0.00000

 k-point    19 :       0.4737    0.0000    0.0000
  band No.  band energies     occupation 
      1     -16.0352      2.00000
      2     -15.7707      2.00000
      3      -9.4646      2.00000
      4      -8.4926      2.00000
      5      -7.8028      2.00000
      6      -6.9026      2.00000
      7      -5.5841      2.00000
      8      -4.7334      2.00000
      9      -4.4042      2.00000
     10      -1.5837      0.00000
     11      -1.0784      0.00000
     12       0.1507      0.00000
     13       0.5178      0.00000
     14       2.4818      0.00000

 k-point    20 :       0.5000    0.0000    0.0000
  band No.  band energies     occupation 
      1     -16.0191      2.00000
      2     -15.7639      2.00000
      3      -9.4810      2.00000
      4      -8.5097      2.00000
      5      -7.8112      2.00000
      6      -6.9107      2.00000
      7      -5.5901      2.00000
      8      -4.7231      2.00000
      9      -4.3847      2.00000
     10      -1.5813      0.00000
     11      -1.0634      0.00000
     12       0.1638      0.00000
     13       0.5227      0.00000
     14       2.4276      0.00000

 k-point    21 :       0.5000    0.0000    0.0000
  band No.  band energies     occupation 
      1     -16.0191      2.00000
      2     -15.7639      2.00000
      3      -9.4810      2.00000
      4      -8.5097      2.00000
      5      -7.8112      2.00000
      6      -6.9107      2.00000
      7      -5.5901      2.00000
      8      -4.7231      2.00000
      9      -4.3847      2.00000
     10      -1.5813      0.00000
     11      -1.0634      0.00000
     12       0.1638      0.00000
     13       0.5227      0.00000
     14       2.4276      0.00000

 k-point    22 :       0.4912    0.0175    0.0000
  band No.  band energies     occupation 
      1     -16.0177      2.00000
      2     -15.7629      2.00000
      3      -9.4765      2.00000
      4      -8.5133      2.00000
      5      -7.8096      2.00000
      6      -6.9115      2.00000
      7      -5.5892      2.00000
      8      -4.7573      2.00000
      9      -4.3662      2.00000
     10      -1.5792      0.00000
     11      -1.0620      0.00000
     12       0.1694      0.00000
     13       0.5090      0.00000
     14       2.4334      0.00000

 k-point    23 :       0.4825    0.0351    0.0000
  band No.  band energies     occupation 
      1     -16.0134      2.00000
      2     -15.7600      2.00000
      3      -9.4630      2.00000
      4      -8.5240      2.00000
      5      -7.8050      2.00000
      6      -6.9134      2.00000
      7      -5.5867      2.00000
      8      -4.8444      2.00000
      9      -4.3255      2.00000
     10      -1.5736      0.00000
     11      -1.0573      0.00000
     12       0.1857      0.00000
     13       0.4697      0.00000
     14       2.4503      0.00000

 k-point    24 :       0.4737    0.0526    0.0000
  band No.  band energies     occupation 
      1     -16.0064      2.00000
      2     -15.7551      2.00000
      3      -9.4407      2.00000
      4      -8.5417      2.00000
      5      -7.7975      2.00000
      6      -6.9159      2.00000
      7      -5.5833      2.00000
      8      -4.9641      2.00000
      9      -4.2810      2.00000
     10      -1.5666      0.00000
     11      -1.0480      0.00000
     12       0.2089      0.00000
     13       0.4117      0.00000
     14       2.4775      0.00000

 k-point    25 :       0.4649    0.0702    0.0000
  band No.  band energies     occupation 
      1     -15.9968      2.00000
      2     -15.7485      2.00000
      3      -9.4095      2.00000
      4      -8.5662      2.00000
      5      -7.7872      2.00000
      6      -6.9179      2.00000
      7      -5.5800      2.00000
      8      -5.1058      2.00000
      9      -4.2402      2.00000
     10      -1.5613      0.00000
     11      -1.0320      0.00000
     12       0.2227      0.00000
     13       0.3558      0.00000
     14       2.5141      0.00000

 k-point    26 :       0.4561    0.0877    0.0000
  band No.  band energies     occupation 
      1     -15.9847      2.00000
      2     -15.7402      2.00000
      3      -9.3699      2.00000
      4      -8.5971      2.00000
      5      -7.7744      2.00000
      6      -6.9182      2.00000
      7      -5.5778      2.00000
      8      -5.2641      2.00000
      9      -4.2044      2.00000
     10      -1.5613      0.00000
     11      -1.0073      0.00000
     12       0.1781      0.00000
     13       0.3554      0.00000
     14       2.5586      0.00000

 k-point    27 :       0.4474    0.1053    0.0000
  band No.  band energies     occupation 
      1     -15.9704      2.00000
      2     -15.7305      2.00000
      3      -9.3218      2.00000
      4      -8.6339      2.00000
      5      -7.7595      2.00000
      6      -6.9156      2.00000
      7      -5.5779      2.00000
      8      -5.4356      2.00000
      9      -4.1728      2.00000
     10      -1.5697      0.00000
     11      -0.9721      0.00000
     12       0.0877      0.00000
     13       0.4020      0.00000
     14       2.6099      0.00000

 k-point    28 :       0.4386    0.1228    0.0000
  band No.  band energies     occupation 
      1     -15.9541      2.00000
      2     -15.7194      2.00000
      3      -9.2658      2.00000
      4      -8.6757      2.00000
      5      -7.7429      2.00000
      6      -6.9093      2.00000
      7      -5.6171      2.00000
      8      -5.5815      2.00000
      9      -4.1440      2.00000
     10      -1.5882      0.00000
     11      -0.9261      0.00000
     12      -0.0146      0.00000
     13       0.4646      0.00000
     14       2.6671      0.00000

 k-point    29 :       0.4298    0.1403    0.0000
  band No.  band energies     occupation 
      1     -15.9362      2.00000
      2     -15.7073      2.00000
      3      -9.2020      2.00000
      4      -8.7215      2.00000
      5      -7.7250      2.00000
      6      -6.8984      2.00000
      7      -5.8060      2.00000
      8      -5.5895      2.00000
      9      -4.1161      2.00000
     10      -1.6172      0.00000
     11      -0.8703      0.00000
     12      -0.1180      0.00000
     13       0.5347      0.00000
     14       2.7292      0.00000

 k-point    30 :       0.4210    0.1579    0.0000
  band No.  band energies     occupation 
      1     -15.9171      2.00000
      2     -15.6945      2.00000
      3      -9.1309      2.00000
      4      -8.7702      2.00000
      5      -7.7066      2.00000
      6      -6.8827      2.00000
      7      -5.9994      2.00000
      8      -5.6027      2.00000
      9      -4.0878      2.00000
     10      -1.6560      0.00000
     11      -0.8065      0.00000
     12      -0.2180      0.00000
     13       0.6086      0.00000
     14       2.7958      0.00000

 k-point    31 :       0.4123    0.1754    0.0000
  band No.  band energies     occupation 
      1     -15.8971      2.00000
      2     -15.6811      2.00000
      3      -9.0531      2.00000
      4      -8.8203      2.00000
      5      -7.6882      2.00000
      6      -6.8621      2.00000
      7      -6.1947      2.00000
      8      -5.6213      2.00000
      9      -4.0576      2.00000
     10      -1.7032      0.00000
     11      -0.7368      0.00000
     12      -0.3113      0.00000
     13       0.6836      0.00000
     14       2.8663      0.00000

 k-point    32 :       0.4035    0.1930    0.0000
  band No.  band energies     occupation 
      1     -15.8768      2.00000
      2     -15.6677      2.00000
      3      -8.9689      2.00000
      4      -8.8706      2.00000
      5      -7.6707      2.00000
      6      -6.8368      2.00000
      7      -6.3891      2.00000
      8      -5.6455      2.00000
      9      -4.0247      2.00000
     10      -1.7572      0.00000
     11      -0.6639      0.00000
     12      -0.3959      0.00000
     13       0.7573      0.00000
     14       2.9404      0.00000

 k-point    33 :       0.3947    0.2105    0.0000
  band No.  band energies     occupation 
      1     -15.8566      2.00000
      2     -15.6544      2.00000
      3      -8.9196      2.00000
      4      -8.8792      2.00000
      5      -7.6553      2.00000
      6      -6.8074      2.00000
      7      -6.5794      2.00000
      8      -5.6749      2.00000
      9      -3.9888      2.00000
     10      -1.8159      0.00000
     11      -0.5898      0.00000
     12      -0.4705      0.00000
     13       0.8273      0.00000
     14       3.0176      0.00000

 k-point    34 :       0.3859    0.2280    0.0000
  band No.  band energies     occupation 
      1     -15.8371      2.00000
      2     -15.6418      2.00000
      3      -8.9658      2.00000
      4      -8.7848      2.00000
      5      -7.6439      2.00000
      6      -6.7748      2.00000
      7      -6.7620      2.00000
      8      -5.7085      2.00000
      9      -3.9503      2.00000
     10      -1.8773      0.00000
     11      -0.5341      0.00000
     12      -0.5172      0.00000
     13       0.8918      0.00000
     14       3.0974      0.00000

 k-point    35 :       0.3772    0.2456    0.0000
  band No.  band energies     occupation 
      1     -15.8189      2.00000
      2     -15.6301      2.00000
      3      -9.0079      2.00000
      4      -8.6869      2.00000
      5      -7.6394      2.00000
      6      -6.9315      2.00000
      7      -6.7403      2.00000
      8      -5.7452      2.00000
      9      -3.9101      2.00000
     10      -1.9387      0.00000
     11      -0.5864      0.00000
     12      -0.4484      0.00000
     13       0.9488      0.00000
     14       3.1790      0.00000

 k-point    36 :       0.3684    0.2631    0.0000
  band No.  band energies     occupation 
      1     -15.8025      2.00000
      2     -15.6197      2.00000
      3      -9.0447      2.00000
      4      -8.5873      2.00000
      5      -7.6471      2.00000
      6      -7.0800      2.00000
      7      -6.7055      2.00000
      8      -5.7828      2.00000
      9      -3.8700      2.00000
     10      -1.9972      0.00000
     11      -0.6275      0.00000
     12      -0.3859      0.00000
     13       0.9968      0.00000
     14       3.2608      0.00000

 k-point    37 :       0.3596    0.2807    0.0000
  band No.  band energies     occupation 
      1     -15.7887      2.00000
      2     -15.6111      2.00000
      3      -9.0749      2.00000
      4      -8.4889      2.00000
      5      -7.6744      2.00000
      6      -7.1963      2.00000
      7      -6.6729      2.00000
      8      -5.8187      2.00000
      9      -3.8326      2.00000
     10      -2.0493      0.00000
     11      -0.6578      0.00000
     12      -0.3325      0.00000
     13       1.0347      0.00000
     14       3.3403      0.00000

 k-point    38 :       0.3508    0.2982    0.0000
  band No.  band energies     occupation 
      1     -15.7780      2.00000
      2     -15.6046      2.00000
      3      -9.0975      2.00000
      4      -8.3979      2.00000
      5      -7.7240      2.00000
      6      -7.2708      2.00000
      7      -6.6454      2.00000
      8      -5.8493      2.00000
      9      -3.8015      2.00000
     10      -2.0910      0.00000
     11      -0.6781      0.00000
     12      -0.2911      0.00000
     13       1.0618      0.00000
     14       3.4120      0.00000

 k-point    39 :       0.3421    0.3158    0.0000
  band No.  band energies     occupation 
      1     -15.7711      2.00000
      2     -15.6004      2.00000
      3      -9.1117      2.00000
      4      -8.3267      2.00000
      5      -7.7797      2.00000
      6      -7.3065      2.00000
      7      -6.6266      2.00000
      8      -5.8705      2.00000
      9      -3.7803      2.00000
     10      -2.1185      0.00000
     11      -0.6893      0.00000
     12      -0.2643      0.00000
     13       1.0779      0.00000
     14       3.4650      0.00000

 k-point    40 :       0.3333    0.3333    0.0000
  band No.  band energies     occupation 
      1     -15.7687      2.00000
      2     -15.5990      2.00000
      3      -9.1166      2.00000
      4      -8.2978      2.00000
      5      -7.8061      2.00000
      6      -7.3158      2.00000
      7      -6.6197      2.00000
      8      -5.8783      2.00000
      9      -3.7725      2.00000
     10      -2.1282      0.00000
     11      -0.6927      0.00000
     12      -0.2549      0.00000
     13       1.0832      0.00000
     14       3.4922      0.00000

 k-point    41 :       0.3333    0.3333    0.0000
  band No.  band energies     occupation 
      1     -15.7687      2.00000
      2     -15.5990      2.00000
      3      -9.1166      2.00000
      4      -8.2978      2.00000
      5      -7.8061      2.00000
      6      -7.3158      2.00000
      7      -6.6197      2.00000
      8      -5.8783      2.00000
      9      -3.7725      2.00000
     10      -2.1282      0.00000
     11      -0.6927      0.00000
     12      -0.2549      0.00000
     13       1.0831      0.00000
     14       3.4843      0.00000

 k-point    42 :       0.3158    0.3158    0.0000
  band No.  band energies     occupation 
      1     -15.7796      2.00000
      2     -15.6052      2.00000
      3      -9.0959      2.00000
      4      -8.3943      2.00000
      5      -7.7067      2.00000
      6      -7.2908      2.00000
      7      -6.6480      2.00000
      8      -5.8450      2.00000
      9      -3.8058      2.00000
     10      -2.0881      0.00000
     11      -0.6822      0.00000
     12      -0.2955      0.00000
     13       1.0640      0.00000
     14       3.4478      0.00000

 k-point    43 :       0.2982    0.2982    0.0000
  band No.  band energies     occupation 
      1     -15.8145      2.00000
      2     -15.6245      2.00000
      3      -9.0323      2.00000
      4      -8.5591      2.00000
      5      -7.5322      2.00000
      6      -7.2169      2.00000
      7      -6.7209      2.00000
      8      -5.7539      2.00000
      9      -3.8991      2.00000
     10      -1.9790      0.00000
     11      -0.6602      0.00000
     12      -0.4169      0.00000
     13       1.0139      0.00000
     14       3.4421      0.00000

 k-point    44 :       0.2807    0.2807    0.0000
  band No.  band energies     occupation 
      1     -15.8762      2.00000
      2     -15.6574      2.00000
      3      -8.9244      2.00000
[...]
      8      -5.7539      2.00000
      9      -3.8991      2.00000
     10      -1.9790      0.00000
     11      -0.6602      0.00000
     12      -0.4169      0.00000
     13       1.0139      0.00000
     14       3.4423      0.00000

 k-point   124 :       0.2807    0.2807    0.5000
  band No.  band energies     occupation 
      1     -15.8762      2.00000
      2     -15.6574      2.00000
      3      -8.9244      2.00000
      4      -8.7011      2.00000
      5      -7.4101      2.00000
      6      -7.0617      2.00000
      7      -6.8129      2.00000
      8      -5.6267      2.00000
      9      -4.0297      2.00000
     10      -1.8334      0.00000
     11      -0.6419      0.00000
     12      -0.6046      0.00000
     13       0.9458      0.00000
     14       3.5167      0.00000

 k-point   125 :       0.2631    0.2631    0.5000
  band No.  band energies     occupation 
      1     -15.9652      2.00000
      2     -15.7033      2.00000
      3      -8.7979      2.00000
      4      -8.7730      2.00000
      5      -7.3594      2.00000
      6      -6.9028      2.00000
      7      -6.8368      2.00000
      8      -5.4819      2.00000
      9      -4.1708      2.00000
     10      -1.6908      0.00000
     11      -0.8286      0.00000
     12      -0.6424      0.00000
     13       0.8725      0.00000
     14       3.6597      0.00000

 k-point   126 :       0.2456    0.2456    0.5000
  band No.  band energies     occupation 
      1     -16.0802      2.00000
      2     -15.7608      2.00000
      3      -8.8453      2.00000
      4      -8.5805      2.00000
      5      -7.3505      2.00000
      6      -6.9769      2.00000
      7      -6.5893      2.00000
      8      -5.3319      2.00000
      9      -4.3024      2.00000
     10      -1.5906      0.00000
     11      -1.0468      0.00000
     12      -0.6723      0.00000
     13       0.8026      0.00000
     14       3.8413      0.00000

 k-point   127 :       0.2280    0.2280    0.5000
  band No.  band energies     occupation 
      1     -16.2178      2.00000
      2     -15.8281      2.00000
      3      -8.8463      2.00000
      4      -8.3516      2.00000
      5      -7.3728      2.00000
      6      -7.0266      2.00000
      7      -6.3427      2.00000
      8      -5.1851      2.00000
      9      -4.4122      2.00000
     10      -1.5809      0.00000
     11      -1.1979      0.00000
     12      -0.7348      0.00000
     13       0.7358      0.00000
     14       3.9837      0.00000

 k-point   128 :       0.2105    0.2105    0.5000
  band No.  band energies     occupation 
      1     -16.3731      2.00000
      2     -15.9027      2.00000
      3      -8.8092      2.00000
      4      -8.0924      2.00000
      5      -7.4214      2.00000
      6      -7.0453      2.00000
      7      -6.1109      2.00000
      8      -5.0481      2.00000
      9      -4.4952      2.00000
     10      -1.6687      0.00000
     11      -1.2528      0.00000
     12      -0.8241      0.00000
     13       0.6638      0.00000
     14       3.9336      0.00000

 k-point   129 :       0.1930    0.1930    0.5000
  band No.  band energies     occupation 
      1     -16.5405      2.00000
      2     -15.9821      2.00000
      3      -8.7481      2.00000
      4      -7.8119      2.00000
      5      -7.4849      2.00000
      6      -7.0269      2.00000
      7      -5.9102      2.00000
      8      -4.9262      2.00000
      9      -4.5475      2.00000
     10      -1.7641      0.00000
     11      -1.2746      0.00000
     12      -0.9293      0.00000
     13       0.5750      0.00000
     14       3.6697      0.00000

 k-point   130 :       0.1754    0.1754    0.5000
  band No.  band energies     occupation 
      1     -16.7141      2.00000
      2     -16.0639      2.00000
      3      -8.6854      2.00000
      4      -7.5408      2.00000
      5      -7.5243      2.00000
      6      -6.9631      2.00000
      7      -5.7654      2.00000
      8      -4.8236      2.00000
      9      -4.5575      2.00000
     10      -1.8097      0.00000
     11      -1.2964      0.00000
     12      -1.0377      0.00000
     13       0.4601      0.00000
     14       3.3848      0.00000

 k-point   131 :       0.1579    0.1579    0.5000
  band No.  band energies     occupation 
      1     -16.8882      2.00000
      2     -16.1456      2.00000
      3      -8.6520      2.00000
      4      -7.5558      2.00000
      5      -7.2543      2.00000
      6      -6.8375      2.00000
      7      -5.7033      2.00000
      8      -4.7437      2.00000
      9      -4.5074      2.00000
     10      -1.7954      0.00000
     11      -1.3134      0.00000
     12      -1.1375      0.00000
     13       0.3161      0.00000
     14       3.1035      0.00000

 k-point   132 :       0.1403    0.1403    0.5000
  band No.  band energies     occupation 
      1     -17.0574      2.00000
      2     -16.2250      2.00000
      3      -8.6737      2.00000
      4      -7.5015      2.00000
      5      -7.0295      2.00000
      6      -6.6328      2.00000
      7      -5.7281      2.00000
      8      -4.6891      2.00000
      9      -4.3962      2.00000
     10      -1.7321      0.00000
     11      -1.3102      0.00000
     12      -1.2186      0.00000
     13       0.1455      0.00000
     14       2.9197      0.00000

 k-point   133 :       0.1228    0.1228    0.5000
  band No.  band energies     occupation 
      1     -17.2172      2.00000
      2     -16.3000      2.00000
      3      -8.7502      2.00000
      4      -7.3768      2.00000
      5      -6.8398      2.00000
      6      -6.3723      2.00000
      7      -5.8139      2.00000
      8      -4.6618      2.00000
      9      -4.2507      2.00000
     10      -1.6372      0.00000
     11      -1.2723      0.00000
     12      -1.2721      0.00000
     13      -0.0438      0.00000
     14       2.5992      0.00000

 k-point   134 :       0.1053    0.1053    0.5000
  band No.  band energies     occupation 
      1     -17.3635      2.00000
      2     -16.3687      2.00000
      3      -8.8596      2.00000
      4      -7.2043      2.00000
      5      -6.6538      2.00000
      6      -6.1020      2.00000
      7      -5.9287      2.00000
      8      -4.6637      2.00000
      9      -4.1032      2.00000
     10      -1.5219      0.00000
     11      -1.2922      0.00000
     12      -1.1954      0.00000
     13      -0.2415      0.00000
     14       2.3918      0.00000

 k-point   135 :       0.0877    0.0877    0.5000
  band No.  band energies     occupation 
      1     -17.4929      2.00000
      2     -16.4296      2.00000
      3      -8.9792      2.00000
      4      -7.0101      2.00000
      5      -6.4573      2.00000
      6      -6.0491      2.00000
      7      -5.8519      2.00000
      8      -4.6966      2.00000
      9      -3.9762      2.00000
     10      -1.3858      0.00000
     11      -1.2753      0.00000
     12      -1.0927      0.00000
     13      -0.4361      0.00000
     14       2.1890      0.00000

 k-point   136 :       0.0702    0.0702    0.5000
  band No.  band energies     occupation 
      1     -17.6025      2.00000
      2     -16.4812      2.00000
      3      -9.0928      2.00000
      4      -6.8159      2.00000
      5      -6.2481      2.00000
      6      -6.1602      2.00000
      7      -5.6386      2.00000
      8      -4.7622      2.00000
      9      -3.8799      2.00000
     10      -1.2283      0.00000
     11      -1.2239      0.00000
     12      -0.9840      0.00000
     13      -0.6153      0.00000
     14       2.0265      0.00000

 k-point   137 :       0.0526    0.0526    0.5000
  band No.  band energies     occupation 
      1     -17.6900      2.00000
      2     -16.5226      2.00000
      3      -9.1899      2.00000
      4      -6.6408      2.00000
      5      -6.2531      2.00000
      6      -6.0299      2.00000
      7      -5.4710      2.00000
      8      -4.8612      2.00000
      9      -3.8147      2.00000
     10      -1.1485      0.00000
     11      -1.0596      0.00000
     12      -0.8863      0.00000
     13      -0.7680      0.00000
     14       1.9325      0.00000

 k-point   138 :       0.0351    0.0351    0.5000
  band No.  band energies     occupation 
      1     -17.7538      2.00000
      2     -16.5527      2.00000
      3      -9.2635      2.00000
      4      -6.5011      2.00000
      5      -6.3226      2.00000
      6      -5.8095      2.00000
      7      -5.3524      2.00000
      8      -4.9919      2.00000
      9      -3.7750      2.00000
     10      -1.0678      0.00000
     11      -0.9029      0.00000
     12      -0.8843      0.00000
     13      -0.8105      0.00000
     14       1.7721      0.00000

 k-point   139 :       0.0175    0.0175    0.5000
  band No.  band energies     occupation 
      1     -17.7926      2.00000
      2     -16.5710      2.00000
      3      -9.3093      2.00000
      4      -6.4109      2.00000
      5      -6.3653      2.00000
      6      -5.5996      2.00000
      7      -5.2824      2.00000
      8      -5.1462      2.00000
      9      -3.7545      2.00000
     10      -1.0054      0.00000
     11      -0.9571      0.00000
     12      -0.7888      0.00000
     13      -0.7628      0.00000
     14       1.7213      0.00000

 k-point   140 :       0.0000    0.0000    0.5000
  band No.  band energies     occupation 
      1     -17.8056      2.00000
      2     -16.5772      2.00000
      3      -9.3248      2.00000
      4      -6.3797      2.00000
      5      -6.3797      2.00000
      6      -5.4675      2.00000
      7      -5.2594      2.00000
      8      -5.2593      2.00000
      9      -3.7482      2.00000
     10      -0.9819      0.00000
     11      -0.9819      0.00000
     12      -0.7468      0.00000
     13      -0.7468      0.00000
     14       1.6682      0.00000


--------------------------------------------------------------------------------------------------------


 soft charge-density along one line, spin component           1
         0         1         2         3         4         5         6         7         8         9
 total charge-density along one line
 
 pseudopotential strength for first ion, spin component:           1
-10.071  -0.000  -0.000   0.000  -0.000   0.111   0.000   0.000
 -0.000 -10.064  -0.000  -0.000   0.000   0.000   0.110   0.000
 -0.000  -0.000 -10.057  -0.000  -0.000   0.000   0.000   0.110
  0.000  -0.000  -0.000 -10.064  -0.000  -0.000   0.000   0.000
 -0.000   0.000  -0.000  -0.000 -10.071   0.000  -0.000   0.000
  0.111   0.000   0.000  -0.000   0.000   0.097  -0.000   0.000
  0.000   0.110   0.000   0.000  -0.000  -0.000   0.097  -0.000
  0.000   0.000   0.110   0.000   0.000   0.000  -0.000   0.097
 -0.000   0.000   0.000   0.110   0.000   0.000  -0.000  -0.000
  0.000  -0.000   0.000   0.000   0.111  -0.000   0.000  -0.000
  0.000   0.000  -0.005   0.000  -0.000  -0.000  -0.000   0.000
 -0.000  -0.000   0.001  -0.000   0.000   0.000   0.000  -0.000
 -0.000  -0.000  -0.000  -0.000  -0.004   0.000   0.000   0.000
 -0.000   0.000  -0.000  -0.000  -0.000  -0.000  -0.000   0.000
 -0.004  -0.000   0.000  -0.000  -0.000  -0.000  -0.000  -0.000
  0.000   0.000   0.000   0.000   0.002  -0.000  -0.000  -0.000
  0.000  -0.000   0.000   0.000   0.000  -0.000   0.000  -0.000
  0.002   0.000  -0.000   0.000   0.000  -0.000  -0.000   0.000
 total augmentation occupancy for first ion, spin component:           1
  1.000   0.000   0.000   0.000   0.000   0.000   0.000   0.000   0.000   0.000   0.000   0.000   0.000   0.000   0.000   0.000
  0.000   1.000   0.000   0.000   0.000   0.000   0.000   0.000   0.000   0.000   0.000   0.000   0.000   0.000   0.000   0.000
  0.000   0.000   1.000   0.000   0.000   0.000   0.000   0.000   0.000   0.000   0.000   0.000   0.000   0.000   0.000   0.000
  0.000   0.000   0.000   1.000   0.000   0.000   0.000   0.000   0.000   0.000   0.000   0.000   0.000   0.000   0.000   0.000
  0.000   0.000   0.000   0.000   1.000   0.000   0.000   0.000   0.000   0.000   0.000   0.000   0.000   0.000   0.000   0.000
  0.000   0.000   0.000   0.000   0.000   0.000   0.000   0.000   0.000   0.000   0.000   0.000   0.000   0.000   0.000   0.000
  0.000   0.000   0.000   0.000   0.000   0.000   0.000   0.000   0.000   0.000   0.000   0.000   0.000   0.000   0.000   0.000
  0.000   0.000   0.000   0.000   0.000   0.000   0.000   0.000   0.000   0.000   0.000   0.000   0.000   0.000   0.000   0.000
  0.000   0.000   0.000   0.000   0.000   0.000   0.000   0.000   0.000   0.000   0.000   0.000   0.000   0.000   0.000   0.000
  0.000   0.000   0.000   0.000   0.000   0.000   0.000   0.000   0.000   0.000   0.000   0.000   0.000   0.000   0.000   0.000
  0.000   0.000   0.000   0.000   0.000   0.000   0.000   0.000   0.000   0.000   1.000   0.000   0.000   0.000   0.000   0.000
  0.000   0.000   0.000   0.000   0.000   0.000   0.000   0.000   0.000   0.000   0.000   0.000   0.000   0.000   0.000   0.000
  0.000   0.000   0.000   0.000   0.000   0.000   0.000   0.000   0.000   0.000   0.000   0.000   0.000   0.000   0.000   0.000
  0.000   0.000   0.000   0.000   0.000   0.000   0.000   0.000   0.000   0.000   0.000   0.000   0.000   0.000   0.000   0.000
  0.000   0.000   0.000   0.000   0.000   0.000   0.000   0.000   0.000   0.000   0.000   0.000   0.000   0.000   0.000   0.000
  0.000   0.000   0.000   0.000   0.000   0.000   0.000   0.000   0.000   0.000   0.000   0.000   0.000   0.000   0.000   0.000
  0.000   0.000   0.000   0.000   0.000   0.000   0.000   0.000   0.000   0.000   0.000   0.000   0.000   0.000   0.000   0.000
  0.000   0.000   0.000   0.000   0.000   0.000   0.000   0.000   0.000   0.000   0.000   0.000   0.000   0.000   0.000   0.000


------------------------ aborting loop because EDIFF is reached ----------------------------------------


 


 total charge     
 
# of ion       s       p       d       tot
------------------------------------------
    1        0.429   0.535   4.758   5.722
    2        1.337   2.252   0.000   3.589
    3        1.337   2.252   0.000   3.589
--------------------------------------------------
tot          3.103   5.039   4.758  12.900
 
    CHARGE:  cpu time    0.5819: real time    0.5827
    FORLOC:  cpu time    0.0130: real time    0.0115
    FORNL :  cpu time    0.5309: real time    0.5310
    STRESS:  cpu time    2.8956: real time    2.8945
    FORCOR:  cpu time    0.1610: real time    0.1616
    FORHAR:  cpu time    0.0380: real time    0.0379
    OFIELD:  cpu time    0.0010: real time    0.0006

  FORCE on cell =-STRESS in cart. coord.  units (eV):
  Direction    XX          YY          ZZ          XY          YZ          ZX
  --------------------------------------------------------------------------------------
  Alpha Z    10.92610    10.92610    10.92610
  Ewald    5921.93836  5921.93880 -6489.34278     0.00019     0.00000     0.00013
  Hartree  6018.25172  6018.25173 -5979.53453     0.00002    -0.00000    -0.00000
  E(xc)     -70.21823   -70.21824   -70.90951    -0.00000     0.00000    -0.00000
  Local  -12212.05012-12212.05042 12185.16558    -0.00017    -0.00000    -0.00005
  n-local   117.99075   117.66470   123.64254    -0.05053    -0.00002    -0.00009
  augment   -23.46425   -23.46424   -24.96183     0.00001    -0.00000    -0.00000
  Kinetic   235.27278   239.13948   245.69243    -5.34525     0.00005     0.00006
  Fock        0.00000     0.00000     0.00000     0.00000     0.00000     0.00000
  -------------------------------------------------------------------------------------
  Total       0.41751     0.41751     0.67800     0.00000     0.00000     0.00000
  in kB       2.46512     2.46512     4.00317     0.00000     0.00000     0.00000
  external pressure =        2.98 kB  Pullay stress =        0.00 kB


 VOLUME and BASIS-vectors are now :
 -----------------------------------------------------------------------------
  energy-cutoff  :      450.00
  volume of cell :      271.36
      direct lattice vectors                 reciprocal lattice vectors
     3.189856830  0.000000000  0.000000000     0.313493694  0.180995668  0.000000000
    -1.594928415  2.762497050  0.000000000     0.000000000  0.361991337  0.000000000
     0.000000000  0.000000000 30.793978868     0.000000000  0.000000000  0.032473881

  length of vectors
     3.189856830  3.189856830 30.793978868     0.361991337  0.361991337  0.032473881


 FORCES acting on ions
    electron-ion (+dipol)            ewald-force                    non-local-force                 convergence-correction
 -----------------------------------------------------------------------------------------------
   0.314E-05 -.898E-05 0.821E-06   0.942E-04 -.109E-03 0.348E-06   -.208E-16 0.000E+00 -.271E-19   -.481E-05 0.276E-05 0.182E-02
   -.833E-03 0.483E-03 0.607E+03   -.873E-04 0.544E-04 -.601E+03   -.694E-17 0.694E-17 0.169E+01   -.683E-05 0.381E-05 -.769E+01
   0.847E-03 0.482E-03 -.607E+03   -.692E-05 0.544E-04 0.601E+03   0.347E-17 0.104E-16 -.169E+01   0.521E-05 0.381E-05 0.769E+01
 -----------------------------------------------------------------------------------------------
   0.170E-04 0.956E-03 0.382E-04   0.592E-14 -.327E-14 0.000E+00   -.243E-16 0.173E-16 -.444E-15   -.643E-05 0.104E-04 0.487E-02
 
 
 POSITION                                       TOTAL-FORCE (eV/Angst)
 -----------------------------------------------------------------------------------
     -0.00000      1.84167      3.70951        -0.000000      0.000000     -0.000000
      1.59493      0.92083      2.15067         0.000000     -0.000000      0.407639
      1.59493      0.92083      5.26835         0.000000     -0.000000     -0.407639
 -----------------------------------------------------------------------------------
    total drift:                                0.000011      0.000966      0.004911


--------------------------------------------------------------------------------------------------------



  FREE ENERGIE OF THE ION-ELECTRON SYSTEM (eV)
  ---------------------------------------------------
  free  energy   TOTEN  =       -20.77945578 eV

  energy  without entropy=      -20.77945578  energy(sigma->0) =      -20.77945578
 


--------------------------------------------------------------------------------------------------------


    POTLOK:  cpu time    0.1510: real time    0.1509


--------------------------------------------------------------------------------------------------------


     LOOP+:  cpu time   80.1788: real time   80.2505
    4ORBIT:  cpu time    0.0000: real time    0.0000
 


 total charge     
 
# of ion       s       p       d       tot
------------------------------------------
    1        0.429   0.535   4.758   5.722
    2        1.337   2.252   0.000   3.589
    3        1.337   2.252   0.000   3.589
--------------------------------------------------
tot          3.103   5.039   4.758  12.900
 

 total amount of memory used by VASP MPI-rank0   225376. kBytes
=======================================================================

   base      :      30000. kBytes
   nonl-proj :     121184. kBytes
   fftplans  :      10209. kBytes
   grid      :      16473. kBytes
   one-center:         31. kBytes
   wavefun   :      47479. kBytes
 
  
  
 General timing and accounting informations for this job:
 ========================================================
  
                  Total CPU time used (sec):       86.385
                            User time (sec):       84.631
                          System time (sec):        1.754
                         Elapsed time (sec):       87.011
  
                   Maximum memory used (kb):      206992.
                   Average memory used (kb):           0.
  
                          Minor page faults:        57054
                          Major page faults:          168
                 Voluntary context switches:         5012
