PROCAR lm decomposed
# of k-points:  140         # of bands:   14         # of ions:    3

 k-point     1 :    0.00000000 0.00000000 0.00000000     weight = 0.00714286

band     1 # energy  -17.80557190 # occ.  2.00000000
 
ion      s     py     pz     px    dxy    dyz    dz2    dxz  x2-y2    tot
    1  0.132  0.000  0.000  0.000  0.000  0.000  0.000  0.000  0.000  0.132
    2  0.276  0.000  0.005  0.000  0.000  0.000  0.000  0.000  0.000  0.281
    3  0.275  0.000  0.005  0.000  0.000  0.000  0.000  0.000  0.000  0.280
tot    0.683  0.000  0.010  0.000  0.000  0.000  0.000  0.000  0.000  0.693
 
band     2 # energy  -16.57718807 # occ.  2.00000000
 
ion      s     py     pz     px    dxy    dyz    dz2    dxz  x2-y2    tot
    1  0.000  0.000  0.060  0.000  0.000  0.000  0.000  0.000  0.000  0.060
    2  0.315  0.000  0.000  0.000  0.000  0.000  0.000  0.000  0.000  0.316
    3  0.316  0.000  0.000  0.000  0.000  0.000  0.000  0.000  0.000  0.316
tot    0.631  0.000  0.060  0.000  0.000  0.000  0.000  0.000  0.000  0.692
 
band     3 # energy   -9.32482561 # occ.  2.00000000
 
ion      s     py     pz     px    dxy    dyz    dz2    dxz  x2-y2    tot
    1  0.129  0.000  0.000  0.000  0.000  0.000  0.206  0.000  0.000  0.335
    2  0.018  0.000  0.125  0.000  0.000  0.000  0.000  0.000  0.000  0.143
    3  0.018  0.000  0.125  0.000  0.000  0.000  0.000  0.000  0.000  0.143
tot    0.164  0.000  0.251  0.000  0.000  0.000  0.206  0.000  0.000  0.621
 
band     4 # energy   -6.37972112 # occ.  2.00000000
 
ion      s     py     pz     px    dxy    dyz    dz2    dxz  x2-y2    tot
    1  0.000  0.000  0.000  0.006  0.580  0.000  0.000  0.000  0.018  0.604
    2  0.000  0.003  0.000  0.110  0.000  0.000  0.000  0.000  0.000  0.114
    3  0.000  0.003  0.000  0.110  0.000  0.000  0.000  0.000  0.000  0.113
tot    0.000  0.007  0.000  0.227  0.580  0.000  0.000  0.000  0.018  0.831
 
band     5 # energy   -6.37971538 # occ.  2.00000000
 
ion      s     py     pz     px    dxy    dyz    dz2    dxz  x2-y2    tot
    1  0.000  0.006  0.000  0.000  0.018  0.000  0.000  0.000  0.580  0.604
    2  0.000  0.110  0.000  0.003  0.000  0.000  0.000  0.000  0.000  0.114
    3  0.000  0.110  0.000  0.003  0.000  0.000  0.000  0.000  0.000  0.113
tot    0.000  0.227  0.000  0.007  0.018  0.000  0.000  0.000  0.580  0.831
 
band     6 # energy   -5.46753838 # occ.  2.00000000
 
ion      s     py     pz     px    dxy    dyz    dz2    dxz  x2-y2    tot
    1  0.000  0.000  0.055  0.000  0.000  0.000  0.000  0.000  0.000  0.055
    2  0.000  0.000  0.247  0.000  0.000  0.000  0.000  0.000  0.000  0.247
    3  0.000  0.000  0.247  0.000  0.000  0.000  0.000  0.000  0.000  0.247
tot    0.001  0.000  0.550  0.000  0.000  0.000  0.000  0.000  0.000  0.550
 
band     7 # energy   -5.25937579 # occ.  2.00000000
 
ion      s     py     pz     px    dxy    dyz    dz2    dxz  x2-y2    tot
    1  0.000  0.000  0.000  0.000  0.000  0.504  0.000  0.041  0.000  0.545
    2  0.000  0.140  0.000  0.011  0.000  0.000  0.000  0.000  0.000  0.151
    3  0.000  0.140  0.000  0.011  0.000  0.000  0.000  0.000  0.000  0.151
tot    0.000  0.280  0.000  0.023  0.000  0.504  0.000  0.041  0.000  0.848
 
band     8 # energy   -5.25934360 # occ.  2.00000000
 
ion      s     py     pz     px    dxy    dyz    dz2    dxz  x2-y2    tot
    1  0.000  0.000  0.000  0.000  0.000  0.041  0.000  0.504  0.000  0.545
    2  0.000  0.011  0.000  0.140  0.000  0.000  0.000  0.000  0.000  0.151
    3  0.000  0.011  0.000  0.140  0.000  0.000  0.000  0.000  0.000  0.151
tot    0.000  0.023  0.000  0.280  0.000  0.041  0.000  0.504  0.000  0.848
 
band     9 # energy   -3.74818592 # occ.  2.00000000
 
ion      s     py     pz     px    dxy    dyz    dz2    dxz  x2-y2    tot
    1  0.015  0.000  0.000  0.000  0.000  0.000  0.600  0.000  0.000  0.616
    2  0.002  0.000  0.069  0.000  0.000  0.000  0.000  0.000  0.000  0.072
    3  0.002  0.000  0.069  0.000  0.000  0.000  0.000  0.000  0.000  0.072
tot    0.020  0.000  0.139  0.000  0.000  0.000  0.600  0.000  0.000  0.759
 
band    10 # energy   -0.98191186 # occ.  0.00000000
 
ion      s     py     pz     px    dxy    dyz    dz2    dxz  x2-y2    tot
    1  0.000  0.000  0.000  0.000  0.000  0.169  0.000  0.187  0.000  0.355
    2  0.000  0.089  0.000  0.098  0.000  0.000  0.000  0.000  0.000  0.187
    3  0.000  0.088  0.000  0.098  0.000  0.000  0.000  0.000  0.000  0.186
tot    0.000  0.177  0.000  0.196  0.000  0.169  0.000  0.187  0.000  0.728
 
band    11 # energy   -0.98190985 # occ.  0.00000000
 
ion      s     py     pz     px    dxy    dyz    dz2    dxz  x2-y2    tot
    1  0.000  0.000  0.000  0.000  0.000  0.187  0.000  0.169  0.000  0.355
    2  0.000  0.098  0.000  0.089  0.000  0.000  0.000  0.000  0.000  0.187
    3  0.000  0.098  0.000  0.088  0.000  0.000  0.000  0.000  0.000  0.186
tot    0.000  0.196  0.000  0.177  0.000  0.187  0.000  0.169  0.000  0.728
 
band    12 # energy   -0.74682637 # occ.  0.00000000
 
ion      s     py     pz     px    dxy    dyz    dz2    dxz  x2-y2    tot
    1  0.000  0.016  0.000  0.003  0.043  0.000  0.000  0.000  0.257  0.319
    2  0.000  0.196  0.000  0.033  0.000  0.000  0.000  0.000  0.000  0.229
    3  0.000  0.197  0.000  0.033  0.000  0.000  0.000  0.000  0.000  0.230
tot    0.000  0.409  0.000  0.068  0.043  0.000  0.000  0.000  0.257  0.778
 
band    13 # energy   -0.74674705 # occ.  0.00000000
 
ion      s     py     pz     px    dxy    dyz    dz2    dxz  x2-y2    tot
    1  0.000  0.003  0.000  0.016  0.257  0.000  0.000  0.000  0.043  0.319
    2  0.000  0.033  0.000  0.196  0.000  0.000  0.000  0.000  0.000  0.229
    3  0.000  0.033  0.000  0.197  0.000  0.000  0.000  0.000  0.000  0.230
tot    0.000  0.068  0.000  0.409  0.257  0.000  0.000  0.000  0.043  0.778
 
band    14 # energy    1.67374117 # occ.  0.00000000
 
ion      s     py     pz     px    dxy    dyz    dz2    dxz  x2-y2    tot
    1  0.031  0.000  0.000  0.000  0.000  0.000  0.021  0.000  0.000  0.053
    2  0.024  0.000  0.003  0.000  0.000  0.000  0.000  0.000  0.000  0.027
    3  0.024  0.000  0.004  0.000  0.000  0.000  0.000  0.000  0.000  0.028
tot    0.079  0.000  0.007  0.000  0.000  0.000  0.021  0.000  0.000  0.107
 

 k-point     2 :    0.02631579 0.00000000 0.00000000     weight = 0.00714286

band     1 # energy  -17.79582032 # occ.  2.00000000
 
ion      s     py     pz     px    dxy    dyz    dz2    dxz  x2-y2    tot
    1  0.131  0.000  0.000  0.000  0.000  0.000  0.000  0.000  0.000  0.132
    2  0.276  0.000  0.005  0.000  0.000  0.000  0.000  0.000  0.000  0.281
    3  0.275  0.000  0.005  0.000  0.000  0.000  0.000  0.000  0.000  0.281
tot    0.683  0.000  0.010  0.000  0.000  0.000  0.000  0.000  0.000  0.694
 
band     2 # energy  -16.57257126 # occ.  2.00000000
 
ion      s     py     pz     px    dxy    dyz    dz2    dxz  x2-y2    tot
    1  0.000  0.000  0.059  0.000  0.000  0.000  0.000  0.000  0.000  0.060
    2  0.315  0.000  0.000  0.000  0.000  0.000  0.000  0.000  0.000  0.316
    3  0.316  0.000  0.000  0.000  0.000  0.000  0.000  0.000  0.000  0.316
tot    0.631  0.000  0.060  0.000  0.000  0.000  0.000  0.000  0.000  0.692
 
band     3 # energy   -9.31316689 # occ.  2.00000000
 
ion      s     py     pz     px    dxy    dyz    dz2    dxz  x2-y2    tot
    1  0.128  0.000  0.000  0.000  0.000  0.000  0.206  0.000  0.000  0.334
    2  0.018  0.000  0.126  0.000  0.000  0.000  0.000  0.000  0.000  0.144
    3  0.018  0.000  0.126  0.000  0.000  0.000  0.000  0.000  0.000  0.144
tot    0.163  0.000  0.251  0.001  0.000  0.000  0.206  0.000  0.000  0.622
 
band     4 # energy   -6.40319355 # occ.  2.00000000
 
ion      s     py     pz     px    dxy    dyz    dz2    dxz  x2-y2    tot
    1  0.002  0.002  0.000  0.005  0.444  0.000  0.000  0.000  0.148  0.601
    2  0.000  0.028  0.000  0.085  0.000  0.000  0.000  0.000  0.000  0.114
    3  0.000  0.028  0.000  0.085  0.000  0.000  0.000  0.000  0.000  0.114
tot    0.002  0.058  0.000  0.175  0.444  0.000  0.000  0.000  0.148  0.829
 
band     5 # energy   -6.36888845 # occ.  2.00000000
 
ion      s     py     pz     px    dxy    dyz    dz2    dxz  x2-y2    tot
    1  0.000  0.005  0.000  0.002  0.149  0.000  0.000  0.000  0.447  0.603
    2  0.000  0.086  0.000  0.028  0.000  0.000  0.000  0.000  0.000  0.114
    3  0.000  0.085  0.000  0.028  0.000  0.000  0.000  0.000  0.000  0.114
tot    0.000  0.176  0.000  0.059  0.149  0.000  0.000  0.000  0.447  0.831
 
band     6 # energy   -5.57395253 # occ.  2.00000000
 
ion      s     py     pz     px    dxy    dyz    dz2    dxz  x2-y2    tot
    1  0.000  0.000  0.035  0.000  0.000  0.041  0.000  0.122  0.000  0.197
    2  0.000  0.009  0.180  0.028  0.000  0.000  0.000  0.000  0.000  0.217
    3  0.000  0.009  0.180  0.028  0.000  0.000  0.000  0.000  0.000  0.217
tot    0.001  0.018  0.395  0.055  0.000  0.041  0.000  0.122  0.000  0.632
 
band     7 # energy   -5.27648376 # occ.  2.00000000
 
ion      s     py     pz     px    dxy    dyz    dz2    dxz  x2-y2    tot
    1  0.000  0.000  0.000  0.000  0.000  0.408  0.000  0.136  0.000  0.544
    2  0.000  0.114  0.000  0.038  0.000  0.000  0.000  0.000  0.000  0.152
    3  0.000  0.114  0.000  0.038  0.000  0.000  0.000  0.000  0.000  0.152
tot    0.000  0.227  0.000  0.076  0.000  0.408  0.000  0.136  0.000  0.847
 
band     8 # energy   -5.16727868 # occ.  2.00000000
 
ion      s     py     pz     px    dxy    dyz    dz2    dxz  x2-y2    tot
    1  0.000  0.000  0.021  0.000  0.000  0.094  0.000  0.283  0.000  0.398
    2  0.000  0.029  0.067  0.087  0.000  0.000  0.000  0.000  0.000  0.183
    3  0.000  0.029  0.067  0.087  0.000  0.000  0.000  0.000  0.000  0.183
tot    0.000  0.058  0.155  0.174  0.000  0.094  0.000  0.283  0.000  0.765
 
band     9 # energy   -3.75286828 # occ.  2.00000000
 
ion      s     py     pz     px    dxy    dyz    dz2    dxz  x2-y2    tot
    1  0.015  0.000  0.000  0.000  0.001  0.000  0.599  0.000  0.000  0.616
    2  0.002  0.000  0.069  0.000  0.000  0.000  0.000  0.000  0.000  0.072
    3  0.002  0.000  0.069  0.000  0.000  0.000  0.000  0.000  0.000  0.072
tot    0.020  0.000  0.138  0.001  0.001  0.000  0.599  0.000  0.000  0.760
 
band    10 # energy   -0.99961664 # occ.  0.00000000
 
ion      s     py     pz     px    dxy    dyz    dz2    dxz  x2-y2    tot
    1  0.000  0.000  0.000  0.000  0.000  0.091  0.000  0.270  0.000  0.361
    2  0.001  0.046  0.000  0.137  0.000  0.000  0.000  0.000  0.000  0.184
    3  0.001  0.046  0.000  0.136  0.000  0.000  0.000  0.000  0.000  0.183
tot    0.002  0.092  0.000  0.273  0.000  0.091  0.000  0.270  0.000  0.727
 
band    11 # energy   -0.96338587 # occ.  0.00000000
 
ion      s     py     pz     px    dxy    dyz    dz2    dxz  x2-y2    tot
    1  0.000  0.000  0.000  0.000  0.000  0.267  0.000  0.090  0.000  0.357
    2  0.000  0.140  0.000  0.047  0.000  0.000  0.000  0.000  0.000  0.187
    3  0.000  0.139  0.000  0.047  0.000  0.000  0.000  0.000  0.000  0.186
tot    0.000  0.279  0.000  0.094  0.000  0.267  0.000  0.090  0.000  0.730
 
band    12 # energy   -0.77861533 # occ.  0.00000000
 
ion      s     py     pz     px    dxy    dyz    dz2    dxz  x2-y2    tot
    1  0.000  0.004  0.000  0.014  0.231  0.000  0.001  0.000  0.070  0.322
    2  0.001  0.052  0.000  0.172  0.000  0.000  0.000  0.000  0.000  0.225
    3  0.001  0.052  0.000  0.173  0.000  0.000  0.000  0.000  0.000  0.226
tot    0.002  0.108  0.000  0.359  0.231  0.000  0.001  0.000  0.070  0.773
 
band    13 # energy   -0.75888710 # occ.  0.00000000
 
ion      s     py     pz     px    dxy    dyz    dz2    dxz  x2-y2    tot
    1  0.000  0.015  0.000  0.004  0.070  0.000  0.000  0.000  0.232  0.321
    2  0.000  0.175  0.000  0.053  0.000  0.000  0.000  0.000  0.000  0.227
    3  0.000  0.176  0.000  0.053  0.000  0.000  0.000  0.000  0.000  0.229
tot    0.000  0.365  0.000  0.110  0.070  0.000  0.000  0.000  0.232  0.777
 
band    14 # energy    1.68895111 # occ.  0.00000000
 
ion      s     py     pz     px    dxy    dyz    dz2    dxz  x2-y2    tot
    1  0.030  0.000  0.000  0.000  0.000  0.000  0.022  0.000  0.000  0.053
    2  0.024  0.000  0.004  0.001  0.000  0.000  0.000  0.000  0.000  0.029
    3  0.022  0.000  0.003  0.001  0.000  0.000  0.000  0.000  0.000  0.026
tot    0.076  0.001  0.007  0.002  0.000  0.000  0.022  0.000  0.000  0.107
 

 k-point     3 :    0.05263158 0.00000000 0.00000000     weight = 0.00714286

band     1 # energy  -17.76668490 # occ.  2.00000000
 
ion      s     py     pz     px    dxy    dyz    dz2    dxz  x2-y2    tot
    1  0.130  0.000  0.000  0.001  0.000  0.000  0.000  0.000  0.000  0.132
    2  0.276  0.000  0.005  0.000  0.000  0.000  0.000  0.000  0.000  0.282
    3  0.276  0.000  0.005  0.000  0.000  0.000  0.000  0.000  0.000  0.281
tot    0.682  0.000  0.010  0.001  0.000  0.000  0.000  0.000  0.000  0.694
 
band     2 # energy  -16.55878794 # occ.  2.00000000
 
ion      s     py     pz     px    dxy    dyz    dz2    dxz  x2-y2    tot
    1  0.000  0.000  0.059  0.000  0.000  0.001  0.000  0.002  0.000  0.061
    2  0.316  0.000  0.000  0.000  0.000  0.000  0.000  0.000  0.000  0.316
    3  0.316  0.000  0.000  0.000  0.000  0.000  0.000  0.000  0.000  0.316
tot    0.631  0.000  0.059  0.000  0.000  0.001  0.000  0.002  0.000  0.693
 
band     3 # energy   -9.27862785 # occ.  2.00000000
 
ion      s     py     pz     px    dxy    dyz    dz2    dxz  x2-y2    tot
    1  0.125  0.001  0.000  0.002  0.002  0.000  0.204  0.000  0.001  0.333
    2  0.018  0.000  0.126  0.000  0.000  0.000  0.000  0.000  0.000  0.144
    3  0.018  0.000  0.126  0.000  0.000  0.000  0.000  0.000  0.000  0.144
tot    0.160  0.001  0.253  0.002  0.002  0.000  0.204  0.000  0.001  0.622
 
band     4 # energy   -6.47172711 # occ.  2.00000000
 
ion      s     py     pz     px    dxy    dyz    dz2    dxz  x2-y2    tot
    1  0.006  0.002  0.000  0.005  0.433  0.000  0.000  0.000  0.144  0.590
    2  0.002  0.029  0.000  0.086  0.000  0.000  0.000  0.000  0.000  0.116
    3  0.002  0.028  0.000  0.085  0.000  0.000  0.000  0.000  0.000  0.115
tot    0.009  0.059  0.000  0.176  0.433  0.000  0.000  0.000  0.144  0.821
 
band     5 # energy   -6.33662231 # occ.  2.00000000
 
ion      s     py     pz     px    dxy    dyz    dz2    dxz  x2-y2    tot
    1  0.000  0.006  0.000  0.002  0.148  0.000  0.000  0.000  0.443  0.599
    2  0.000  0.087  0.000  0.029  0.000  0.000  0.000  0.000  0.000  0.116
    3  0.000  0.087  0.000  0.029  0.000  0.000  0.000  0.000  0.000  0.115
tot    0.000  0.179  0.000  0.060  0.148  0.000  0.000  0.000  0.443  0.830
 
band     6 # energy   -5.75221113 # occ.  2.00000000
 
ion      s     py     pz     px    dxy    dyz    dz2    dxz  x2-y2    tot
    1  0.000  0.000  0.021  0.000  0.000  0.063  0.000  0.190  0.000  0.274
    2  0.000  0.014  0.145  0.041  0.000  0.000  0.000  0.000  0.000  0.200
    3  0.000  0.014  0.145  0.041  0.000  0.000  0.000  0.000  0.000  0.200
tot    0.000  0.028  0.310  0.083  0.000  0.063  0.000  0.190  0.000  0.674
 
band     7 # energy   -5.32642361 # occ.  2.00000000
 
ion      s     py     pz     px    dxy    dyz    dz2    dxz  x2-y2    tot
    1  0.000  0.000  0.000  0.000  0.000  0.405  0.000  0.135  0.000  0.541
    2  0.000  0.114  0.000  0.038  0.000  0.000  0.000  0.000  0.000  0.152
    3  0.000  0.114  0.000  0.038  0.000  0.000  0.000  0.000  0.000  0.152
tot    0.000  0.228  0.000  0.076  0.000  0.405  0.000  0.135  0.000  0.845
 
band     8 # energy   -5.03345282 # occ.  2.00000000
 
ion      s     py     pz     px    dxy    dyz    dz2    dxz  x2-y2    tot
    1  0.000  0.000  0.037  0.000  0.000  0.067  0.000  0.201  0.000  0.306
    2  0.000  0.026  0.103  0.077  0.000  0.000  0.000  0.000  0.000  0.206
    3  0.000  0.026  0.102  0.077  0.000  0.000  0.000  0.000  0.000  0.206
tot    0.000  0.051  0.242  0.155  0.000  0.067  0.000  0.201  0.000  0.717
 
band     9 # energy   -3.76789159 # occ.  2.00000000
 
ion      s     py     pz     px    dxy    dyz    dz2    dxz  x2-y2    tot
    1  0.016  0.000  0.000  0.000  0.004  0.000  0.596  0.000  0.001  0.618
    2  0.003  0.001  0.068  0.002  0.000  0.000  0.000  0.000  0.000  0.073
    3  0.003  0.001  0.068  0.002  0.000  0.000  0.000  0.000  0.000  0.073
tot    0.021  0.001  0.136  0.004  0.004  0.000  0.596  0.000  0.001  0.764
 
band    10 # energy   -1.04714373 # occ.  0.00000000
 
ion      s     py     pz     px    dxy    dyz    dz2    dxz  x2-y2    tot
    1  0.000  0.000  0.000  0.000  0.000  0.094  0.000  0.282  0.000  0.376
    2  0.004  0.043  0.001  0.128  0.000  0.000  0.000  0.000  0.000  0.175
    3  0.005  0.042  0.001  0.127  0.000  0.000  0.000  0.000  0.000  0.174
tot    0.009  0.085  0.001  0.255  0.000  0.094  0.000  0.282  0.000  0.726
 
band    11 # energy   -0.90946645 # occ.  0.00000000
 
ion      s     py     pz     px    dxy    dyz    dz2    dxz  x2-y2    tot
    1  0.000  0.000  0.000  0.000  0.000  0.272  0.000  0.090  0.000  0.363
    2  0.000  0.140  0.000  0.047  0.000  0.000  0.000  0.000  0.000  0.187
    3  0.000  0.138  0.000  0.045  0.000  0.000  0.000  0.000  0.000  0.184
tot    0.000  0.278  0.000  0.093  0.000  0.272  0.000  0.090  0.000  0.734
 
band    12 # energy   -0.86733625 # occ.  0.00000000
 
ion      s     py     pz     px    dxy    dyz    dz2    dxz  x2-y2    tot
    1  0.001  0.004  0.000  0.013  0.228  0.000  0.006  0.000  0.077  0.330
    2  0.003  0.054  0.001  0.158  0.000  0.000  0.000  0.000  0.000  0.215
    3  0.003  0.053  0.001  0.160  0.000  0.000  0.000  0.000  0.000  0.217
tot    0.008  0.111  0.002  0.330  0.228  0.000  0.006  0.000  0.077  0.762
 
band    13 # energy   -0.79427758 # occ.  0.00000000
 
ion      s     py     pz     px    dxy    dyz    dz2    dxz  x2-y2    tot
    1  0.000  0.014  0.000  0.005  0.077  0.000  0.000  0.000  0.230  0.326
    2  0.000  0.167  0.000  0.056  0.000  0.000  0.000  0.000  0.000  0.223
    3  0.000  0.169  0.000  0.057  0.000  0.000  0.000  0.000  0.000  0.226
tot    0.000  0.351  0.000  0.118  0.077  0.000  0.000  0.000  0.230  0.776
 
band    14 # energy    1.75151017 # occ.  0.00000000
 
ion      s     py     pz     px    dxy    dyz    dz2    dxz  x2-y2    tot
    1  0.026  0.000  0.000  0.001  0.001  0.000  0.022  0.000  0.000  0.050
    2  0.019  0.001  0.002  0.002  0.000  0.000  0.000  0.000  0.000  0.024
    3  0.021  0.001  0.005  0.003  0.000  0.000  0.000  0.000  0.000  0.030
tot    0.065  0.002  0.008  0.006  0.001  0.000  0.022  0.000  0.000  0.104
 

 k-point     4 :    0.07894737 0.00000000 0.00000000     weight = 0.00714286

band     1 # energy  -17.71859187 # occ.  2.00000000
 
ion      s     py     pz     px    dxy    dyz    dz2    dxz  x2-y2    tot
    1  0.127  0.001  0.000  0.002  0.001  0.000  0.000  0.000  0.000  0.131
    2  0.277  0.000  0.005  0.000  0.000  0.000  0.000  0.000  0.000  0.283
    3  0.277  0.000  0.005  0.000  0.000  0.000  0.000  0.000  0.000  0.282
tot    0.681  0.001  0.010  0.002  0.001  0.000  0.000  0.000  0.000  0.696
 
band     2 # energy  -16.53605166 # occ.  2.00000000
 
ion      s     py     pz     px    dxy    dyz    dz2    dxz  x2-y2    tot
    1  0.000  0.000  0.057  0.000  0.000  0.001  0.000  0.004  0.000  0.062
    2  0.316  0.000  0.000  0.000  0.000  0.000  0.000  0.000  0.000  0.316
    3  0.316  0.000  0.000  0.000  0.000  0.000  0.000  0.000  0.000  0.317
tot    0.632  0.000  0.058  0.000  0.000  0.001  0.000  0.004  0.000  0.696
 
band     3 # energy   -9.22260927 # occ.  2.00000000
 
ion      s     py     pz     px    dxy    dyz    dz2    dxz  x2-y2    tot
    1  0.120  0.001  0.000  0.004  0.004  0.000  0.201  0.000  0.001  0.332
    2  0.017  0.000  0.128  0.001  0.000  0.000  0.000  0.000  0.000  0.145
    3  0.017  0.000  0.127  0.001  0.000  0.000  0.000  0.000  0.000  0.145
tot    0.154  0.002  0.255  0.005  0.004  0.000  0.201  0.000  0.001  0.622
 
band     4 # energy   -6.57997193 # occ.  2.00000000
 
ion      s     py     pz     px    dxy    dyz    dz2    dxz  x2-y2    tot
    1  0.014  0.002  0.000  0.006  0.414  0.000  0.000  0.000  0.138  0.574
    2  0.003  0.029  0.000  0.086  0.000  0.000  0.000  0.000  0.000  0.118
    3  0.003  0.029  0.000  0.086  0.000  0.000  0.000  0.000  0.000  0.118
tot    0.020  0.059  0.000  0.178  0.414  0.000  0.000  0.000  0.138  0.810
 
band     5 # energy   -6.28356531 # occ.  2.00000000
 
ion      s     py     pz     px    dxy    dyz    dz2    dxz  x2-y2    tot
    1  0.000  0.007  0.000  0.002  0.145  0.000  0.000  0.000  0.436  0.591
    2  0.000  0.089  0.000  0.030  0.000  0.000  0.000  0.000  0.000  0.118
    3  0.000  0.089  0.000  0.030  0.000  0.000  0.000  0.000  0.000  0.118
tot    0.000  0.184  0.000  0.061  0.145  0.000  0.000  0.000  0.436  0.828
 
band     6 # energy   -5.94536585 # occ.  2.00000000
 
ion      s     py     pz     px    dxy    dyz    dz2    dxz  x2-y2    tot
    1  0.000  0.000  0.012  0.000  0.000  0.075  0.000  0.225  0.000  0.312
    2  0.000  0.016  0.126  0.049  0.000  0.000  0.000  0.000  0.000  0.191
    3  0.000  0.016  0.126  0.049  0.000  0.000  0.000  0.000  0.000  0.191
tot    0.001  0.033  0.264  0.098  0.000  0.075  0.000  0.225  0.000  0.694
 
band     7 # energy   -5.40525116 # occ.  2.00000000
 
ion      s     py     pz     px    dxy    dyz    dz2    dxz  x2-y2    tot
    1  0.000  0.000  0.000  0.000  0.000  0.402  0.000  0.134  0.000  0.535
    2  0.000  0.115  0.000  0.038  0.000  0.000  0.000  0.000  0.000  0.153
    3  0.000  0.115  0.000  0.038  0.000  0.000  0.000  0.000  0.000  0.153
tot    0.000  0.229  0.000  0.076  0.000  0.402  0.000  0.134  0.000  0.841
 
band     8 # energy   -4.91883730 # occ.  2.00000000
 
ion      s     py     pz     px    dxy    dyz    dz2    dxz  x2-y2    tot
    1  0.000  0.000  0.049  0.000  0.000  0.048  0.000  0.145  0.000  0.243
    2  0.000  0.025  0.121  0.076  0.000  0.000  0.000  0.000  0.000  0.222
    3  0.000  0.025  0.121  0.076  0.000  0.000  0.000  0.000  0.000  0.222
tot    0.000  0.051  0.291  0.152  0.000  0.048  0.000  0.145  0.000  0.688
 
band     9 # energy   -3.79610874 # occ.  2.00000000
 
ion      s     py     pz     px    dxy    dyz    dz2    dxz  x2-y2    tot
    1  0.016  0.000  0.000  0.000  0.011  0.000  0.589  0.000  0.004  0.620
    2  0.003  0.001  0.066  0.004  0.000  0.000  0.000  0.000  0.000  0.075
    3  0.003  0.001  0.066  0.004  0.000  0.000  0.000  0.000  0.000  0.075
tot    0.023  0.003  0.133  0.008  0.011  0.000  0.589  0.000  0.004  0.770
 
band    10 # energy   -1.10932082 # occ.  0.00000000
 
ion      s     py     pz     px    dxy    dyz    dz2    dxz  x2-y2    tot
    1  0.000  0.000  0.001  0.000  0.000  0.100  0.000  0.300  0.000  0.400
    2  0.009  0.038  0.002  0.114  0.000  0.000  0.000  0.000  0.000  0.163
    3  0.009  0.038  0.002  0.113  0.000  0.000  0.000  0.000  0.000  0.161
tot    0.018  0.076  0.004  0.227  0.000  0.100  0.000  0.300  0.000  0.724
 
band    11 # energy   -0.99541022 # occ.  0.00000000
 
ion      s     py     pz     px    dxy    dyz    dz2    dxz  x2-y2    tot
    1  0.002  0.004  0.000  0.012  0.232  0.000  0.016  0.000  0.077  0.343
    2  0.006  0.048  0.002  0.145  0.000  0.000  0.000  0.000  0.000  0.201
    3  0.006  0.049  0.002  0.146  0.000  0.000  0.000  0.000  0.000  0.203
tot    0.013  0.101  0.004  0.304  0.232  0.000  0.016  0.000  0.077  0.747
 
band    12 # energy   -0.85029785 # occ.  0.00000000
 
ion      s     py     pz     px    dxy    dyz    dz2    dxz  x2-y2    tot
    1  0.000  0.014  0.000  0.005  0.079  0.000  0.000  0.000  0.237  0.335
    2  0.000  0.169  0.000  0.056  0.000  0.000  0.000  0.000  0.000  0.225
    3  0.000  0.160  0.000  0.053  0.000  0.000  0.000  0.000  0.000  0.214
tot    0.000  0.344  0.000  0.114  0.079  0.000  0.000  0.000  0.237  0.774
 
band    13 # energy   -0.82480894 # occ.  0.00000000
 
ion      s     py     pz     px    dxy    dyz    dz2    dxz  x2-y2    tot
    1  0.000  0.000  0.000  0.000  0.000  0.278  0.000  0.093  0.000  0.371
    2  0.000  0.134  0.000  0.045  0.000  0.000  0.000  0.000  0.000  0.179
    3  0.000  0.143  0.000  0.047  0.000  0.000  0.000  0.000  0.000  0.190
tot    0.000  0.277  0.000  0.092  0.000  0.278  0.000  0.093  0.000  0.740
 
band    14 # energy    1.83631056 # occ.  0.00000000
 
ion      s     py     pz     px    dxy    dyz    dz2    dxz  x2-y2    tot
    1  0.021  0.000  0.000  0.001  0.001  0.000  0.023  0.000  0.000  0.047
    2  0.017  0.001  0.007  0.004  0.000  0.000  0.000  0.000  0.000  0.030
    3  0.014  0.001  0.002  0.004  0.000  0.000  0.000  0.000  0.000  0.022
tot    0.052  0.003  0.009  0.009  0.001  0.000  0.023  0.000  0.000  0.099
 

 k-point     5 :    0.10526316 0.00000000 0.00000000     weight = 0.00714286

band     1 # energy  -17.65224525 # occ.  2.00000000
 
ion      s     py     pz     px    dxy    dyz    dz2    dxz  x2-y2    tot
    1  0.123  0.001  0.000  0.003  0.001  0.000  0.000  0.000  0.000  0.130
    2  0.278  0.000  0.005  0.000  0.000  0.000  0.000  0.000  0.000  0.284
    3  0.278  0.000  0.005  0.000  0.000  0.000  0.000  0.000  0.000  0.284
tot    0.679  0.001  0.010  0.004  0.001  0.000  0.000  0.000  0.000  0.698
 
band     2 # energy  -16.50472411 # occ.  2.00000000
 
ion      s     py     pz     px    dxy    dyz    dz2    dxz  x2-y2    tot
    1  0.000  0.000  0.056  0.000  0.000  0.002  0.000  0.007  0.000  0.064
    2  0.316  0.000  0.000  0.000  0.000  0.000  0.000  0.000  0.000  0.317
    3  0.317  0.000  0.000  0.000  0.000  0.000  0.000  0.000  0.000  0.317
tot    0.633  0.000  0.057  0.001  0.000  0.002  0.000  0.007  0.000  0.699
 
band     3 # energy   -9.14767425 # occ.  2.00000000
 
ion      s     py     pz     px    dxy    dyz    dz2    dxz  x2-y2    tot
    1  0.113  0.002  0.000  0.006  0.009  0.000  0.197  0.000  0.003  0.331
    2  0.016  0.000  0.129  0.001  0.000  0.000  0.000  0.000  0.000  0.147
    3  0.016  0.000  0.129  0.001  0.000  0.000  0.000  0.000  0.000  0.146
tot    0.146  0.003  0.258  0.008  0.009  0.000  0.197  0.000  0.003  0.624
 
band     4 # energy   -6.71993661 # occ.  2.00000000
 
ion      s     py     pz     px    dxy    dyz    dz2    dxz  x2-y2    tot
    1  0.024  0.002  0.000  0.006  0.389  0.000  0.001  0.000  0.130  0.552
    2  0.006  0.029  0.000  0.087  0.000  0.000  0.000  0.000  0.000  0.122
    3  0.006  0.029  0.000  0.087  0.000  0.000  0.000  0.000  0.000  0.121
tot    0.035  0.060  0.001  0.180  0.389  0.000  0.001  0.000  0.130  0.795
 
band     5 # energy   -6.21080812 # occ.  2.00000000
 
ion      s     py     pz     px    dxy    dyz    dz2    dxz  x2-y2    tot
    1  0.000  0.009  0.000  0.003  0.142  0.000  0.000  0.000  0.427  0.581
    2  0.000  0.091  0.000  0.030  0.000  0.000  0.000  0.000  0.000  0.122
    3  0.000  0.091  0.000  0.030  0.000  0.000  0.000  0.000  0.000  0.122
tot    0.000  0.192  0.000  0.064  0.142  0.000  0.000  0.000  0.427  0.825
 
band     6 # energy   -6.14513250 # occ.  2.00000000
 
ion      s     py     pz     px    dxy    dyz    dz2    dxz  x2-y2    tot
    1  0.000  0.000  0.006  0.000  0.000  0.082  0.000  0.245  0.000  0.333
    2  0.000  0.018  0.112  0.055  0.000  0.000  0.000  0.000  0.000  0.186
    3  0.000  0.018  0.112  0.055  0.000  0.000  0.000  0.000  0.000  0.186
tot    0.001  0.037  0.230  0.110  0.000  0.082  0.000  0.245  0.000  0.704
 
band     7 # energy   -5.50742100 # occ.  2.00000000
 
ion      s     py     pz     px    dxy    dyz    dz2    dxz  x2-y2    tot
    1  0.000  0.000  0.000  0.000  0.000  0.397  0.000  0.132  0.000  0.529
    2  0.000  0.115  0.000  0.038  0.000  0.000  0.000  0.000  0.000  0.154
    3  0.000  0.115  0.000  0.038  0.000  0.000  0.000  0.000  0.000  0.154
tot    0.000  0.231  0.000  0.077  0.000  0.397  0.000  0.132  0.000  0.837
 
band     8 # energy   -4.83706778 # occ.  2.00000000
 
ion      s     py     pz     px    dxy    dyz    dz2    dxz  x2-y2    tot
    1  0.000  0.000  0.059  0.000  0.000  0.033  0.000  0.098  0.000  0.190
    2  0.001  0.026  0.134  0.077  0.000  0.000  0.000  0.000  0.000  0.238
    3  0.001  0.026  0.134  0.077  0.000  0.000  0.000  0.000  0.000  0.238
tot    0.001  0.052  0.326  0.155  0.000  0.033  0.000  0.098  0.000  0.665
 
band     9 # energy   -3.84181094 # occ.  2.00000000
 
ion      s     py     pz     px    dxy    dyz    dz2    dxz  x2-y2    tot
    1  0.017  0.000  0.000  0.001  0.021  0.000  0.577  0.000  0.007  0.622
    2  0.004  0.002  0.064  0.007  0.000  0.000  0.000  0.000  0.000  0.077
    3  0.004  0.002  0.064  0.007  0.000  0.000  0.000  0.000  0.000  0.077
tot    0.025  0.005  0.127  0.015  0.021  0.000  0.577  0.000  0.007  0.777
 
band    10 # energy   -1.16627932 # occ.  0.00000000
 
ion      s     py     pz     px    dxy    dyz    dz2    dxz  x2-y2    tot
    1  0.000  0.000  0.001  0.000  0.000  0.107  0.000  0.322  0.000  0.430
    2  0.014  0.033  0.004  0.099  0.000  0.000  0.000  0.000  0.000  0.149
    3  0.014  0.032  0.003  0.095  0.000  0.000  0.000  0.000  0.000  0.144
tot    0.028  0.065  0.008  0.194  0.000  0.107  0.000  0.322  0.000  0.724
 
band    11 # energy   -1.14159988 # occ.  0.00000000
 
ion      s     py     pz     px    dxy    dyz    dz2    dxz  x2-y2    tot
    1  0.002  0.004  0.000  0.011  0.234  0.000  0.032  0.000  0.078  0.361
    2  0.008  0.043  0.004  0.129  0.000  0.000  0.000  0.000  0.000  0.183
    3  0.008  0.044  0.004  0.132  0.000  0.000  0.000  0.000  0.000  0.188
tot    0.018  0.091  0.008  0.272  0.234  0.000  0.032  0.000  0.078  0.732
 
band    12 # energy   -0.92311331 # occ.  0.00000000
 
ion      s     py     pz     px    dxy    dyz    dz2    dxz  x2-y2    tot
    1  0.000  0.015  0.000  0.005  0.082  0.000  0.000  0.000  0.247  0.348
    2  0.000  0.159  0.000  0.053  0.000  0.000  0.000  0.000  0.000  0.213
    3  0.000  0.159  0.000  0.053  0.000  0.000  0.000  0.000  0.000  0.212