perl: warning: Setting locale failed.
perl: warning: Please check that your locale settings:
	LANGUAGE = (unset),
	LC_ALL = (unset),
	LC_CTYPE = "UTF-8",
	LANG = "en_US.iso885915"
    are supported and installed on your system.
perl: warning: Falling back to the standard locale ("C").
Starting job 28534760 ("jobname") on c15-30 at Fri Nov 8 15:22:43 CET 2019
 running on    4 total cores
 distrk:  each k-point on    4 cores,    1 groups
 distr:  one band on    2 cores,    2 groups
 using from now: INCAR     
 vasp.5.4.4.18Apr17-6-g9f103f2a35 (build Jun 30 2017 11:15:00) complex          
  
 POSCAR found type information on POSCAR  Mo S 
 POSCAR found :  2 types and       3 ions
 scaLAPACK will be used
 LDA part: xc-table for Pade appr. of Perdew
 WARNING: stress and forces are not correct
 POSCAR, INCAR and KPOINTS ok, starting setup
 FFT: planning ...
 WAVECAR not read
 charge-density read from file: unknown                                 
 entering main loop
       N       E                     dE             d eps       ncg     rms          rms(c)
DAV:   1     0.124359799698E+03    0.12436E+03   -0.47922E+03  3920   0.742E+02
DAV:   2    -0.508266684124E+01   -0.12944E+03   -0.11731E+03  6984   0.152E+02
DAV:   3    -0.204443746826E+02   -0.15362E+02   -0.15162E+02  5332   0.704E+01
DAV:   4    -0.207707487788E+02   -0.32637E+00   -0.32293E+00  5102   0.123E+01
DAV:   5    -0.207791588110E+02   -0.84100E-02   -0.83844E-02  5048   0.187E+00
RMM:   6    -0.207794236845E+02   -0.26487E-03   -0.26487E-03  4067   0.348E-01
RMM:   7    -0.207794562147E+02   -0.32530E-04   -0.32566E-04  5610   0.933E-02
RMM:   8    -0.207794557838E+02    0.43086E-06   -0.14585E-06  3165   0.468E-03
   1 F= -.20779456E+02 E0= -.20779456E+02  d E =-.169094E-08

Currently Loaded Modulefiles:
  1) Anaconda3/5.1.0       3) vesta/3.3.8           5) intel/2016.1
  2) gnuplot/5.0.4         4) imagemagick/6.7.9-0   6) vasp/5.4.1.Feb16

Job script resource usage:
       JobID  MaxVMSize     MaxRSS 
------------ ---------- ---------- 
28534760.ba+    499280K      6114K 

Job step resource usage:
       JobID    JobName  AllocCPUS  MaxVMSize     MaxRSS    Elapsed ExitCode 
------------ ---------- ---------- ---------- ---------- ---------- -------- 
28534760        jobname          4                         00:01:29      0:0 
28534760.0    pmi_proxy          1   2060176K    757275K   00:01:28      0:0 

Job 28534760 ("jobname") completed on c15-30 at Fri Nov 8 15:24:11 CET 2019
