<?xml version="1.0" encoding="ISO-8859-1"?>
<modeling>
 <generator>
  <i name="program" type="string">vasp </i>
  <i name="version" type="string">5.4.4.18Apr17-6-g9f103f2a35  </i>
  <i name="subversion" type="string">(build Jun 30 2017 11:15:00) complex            parallel </i>
  <i name="platform" type="string">STALLO_VASP_5.4.4 </i>
  <i name="date" type="string">2019 11 08 </i>
  <i name="time" type="string">15:22:44 </i>
 </generator>
 <incar>
  <i type="string" name="PREC">accurate  ! low/normal/accurate</i>
  <i type="string" name="ALGO"> Fast      ! Algorithm for electronic re</i>
  <i type="int" name="ISPIN">     1</i>
  <i type="int" name="ICHARG">    11</i>
  <i type="int" name="NELMIN">     4</i>
  <i name="EDIFF">      0.00000100</i>
  <i type="int" name="NSW">     0</i>
  <i name="ENCUT">    450.00000000</i>
  <i type="int" name="NEDOS">  2401</i>
  <i type="logical" name="LREAL"> F  </i>
  <i name="EMIN">    -12.00000000</i>
  <i name="EMAX">     12.00000000</i>
  <i type="int" name="ISMEAR">     0</i>
  <i name="SIGMA">      0.20000000</i>
  <i type="logical" name="LWAVE"> F  </i>
  <i type="int" name="LORBIT">    11</i>
  <i type="logical" name="LELF"> T  </i>
  <v type="int" name="KPOINT_BSE">    -1     0     0     0</v>
 </incar>
 <structure name="primitive_cell" >
  <crystal>
   <varray name="basis" >
    <v>       3.18985683       0.00000000       0.00000000 </v>
    <v>      -1.59492842       2.76249705       0.00000000 </v>
    <v>       0.00000000       0.00000000      30.79397887 </v>
   </varray>
   <i name="volume">    271.35562051 </i>
   <varray name="rec_basis" >
    <v>       0.31349369       0.18099567       0.00000000 </v>
    <v>       0.00000000       0.36199134       0.00000000 </v>
    <v>       0.00000000       0.00000000       0.03247388 </v>
   </varray>
  </crystal>
  <varray name="positions" >
   <v>       0.33333300      -0.33333300       0.12046214 </v>
   <v>      -0.33333400       0.33333300       0.17108384 </v>
   <v>      -0.33333300       0.33333300       0.06984045 </v>
  </varray>
 </structure>
 <varray name="primitive_index" >
  <v type="int" >        1 </v>
  <v type="int" >        3 </v>
  <v type="int" >        2 </v>
 </varray>
 <kpoints>
  <generation param="listgenerated">
   <i name="divisions" type="int">      20 </i>
   <v>       0.00000000       0.00000000       0.00000000 </v>
   <v>       0.50000000       0.00000000       0.00000000 </v>
   <v>       0.33330000       0.33330000       0.00000000 </v>
   <v>       0.00000000       0.00000000       0.00000000 </v>
   <v>       0.00000000       0.00000000       0.50000000 </v>
   <v>       0.50000000       0.00000000       0.50000000 </v>
   <v>       0.33330000       0.33330000       0.50000000 </v>
   <v>       0.00000000       0.00000000       0.50000000 </v>
  </generation>
  <varray name="kpointlist" >
   <v>       0.00000000       0.00000000       0.00000000 </v>
   <v>       0.02631579       0.00000000       0.00000000 </v>
   <v>       0.05263158       0.00000000       0.00000000 </v>
   <v>       0.07894737       0.00000000       0.00000000 </v>
   <v>       0.10526316       0.00000000       0.00000000 </v>
   <v>       0.13157895       0.00000000       0.00000000 </v>
   <v>       0.15789474       0.00000000       0.00000000 </v>
   <v>       0.18421053       0.00000000       0.00000000 </v>
   <v>       0.21052632       0.00000000       0.00000000 </v>
   <v>       0.23684211       0.00000000       0.00000000 </v>
   <v>       0.26315789       0.00000000       0.00000000 </v>
   <v>       0.28947368       0.00000000       0.00000000 </v>
   <v>       0.31578947       0.00000000       0.00000000 </v>
   <v>       0.34210526       0.00000000       0.00000000 </v>
   <v>       0.36842105       0.00000000       0.00000000 </v>
   <v>       0.39473684       0.00000000       0.00000000 </v>
   <v>       0.42105263       0.00000000       0.00000000 </v>
   <v>       0.44736842       0.00000000       0.00000000 </v>
   <v>       0.47368421       0.00000000       0.00000000 </v>
   <v>       0.50000000       0.00000000       0.00000000 </v>
   <v>       0.50000000       0.00000000       0.00000000 </v>
   <v>       0.49122632       0.01754211       0.00000000 </v>
   <v>       0.48245263       0.03508421       0.00000000 </v>
   <v>       0.47367895       0.05262632       0.00000000 </v>
   <v>       0.46490526       0.07016842       0.00000000 </v>
   <v>       0.45613158       0.08771053       0.00000000 </v>
   <v>       0.44735789       0.10525263       0.00000000 </v>
   <v>       0.43858421       0.12279474       0.00000000 </v>
   <v>       0.42981053       0.14033684       0.00000000 </v>
   <v>       0.42103684       0.15787895       0.00000000 </v>
   <v>       0.41226316       0.17542105       0.00000000 </v>
   <v>       0.40348947       0.19296316       0.00000000 </v>
   <v>       0.39471579       0.21050526       0.00000000 </v>
   <v>       0.38594211       0.22804737       0.00000000 </v>
   <v>       0.37716842       0.24558947       0.00000000 </v>
   <v>       0.36839474       0.26313158       0.00000000 </v>
   <v>       0.35962105       0.28067368       0.00000000 </v>
   <v>       0.35084737       0.29821579       0.00000000 </v>
   <v>       0.34207368       0.31575789       0.00000000 </v>
   <v>       0.33330000       0.33330000       0.00000000 </v>
   <v>       0.33330000       0.33330000       0.00000000 </v>
   <v>       0.31575789       0.31575789       0.00000000 </v>
   <v>       0.29821579       0.29821579       0.00000000 </v>
   <v>       0.28067368       0.28067368       0.00000000 </v>
   <v>       0.26313158       0.26313158       0.00000000 </v>
   <v>       0.24558947       0.24558947       0.00000000 </v>
   <v>       0.22804737       0.22804737       0.00000000 </v>
   <v>       0.21050526       0.21050526       0.00000000 </v>
   <v>       0.19296316       0.19296316       0.00000000 </v>
   <v>       0.17542105       0.17542105       0.00000000 </v>
   <v>       0.15787895       0.15787895       0.00000000 </v>
   <v>       0.14033684       0.14033684       0.00000000 </v>
   <v>       0.12279474       0.12279474       0.00000000 </v>
   <v>       0.10525263       0.10525263       0.00000000 </v>
   <v>       0.08771053       0.08771053       0.00000000 </v>
   <v>       0.07016842       0.07016842       0.00000000 </v>
   <v>       0.05262632       0.05262632       0.00000000 </v>
   <v>       0.03508421       0.03508421       0.00000000 </v>
   <v>       0.01754211       0.01754211       0.00000000 </v>
   <v>       0.00000000       0.00000000       0.00000000 </v>
   <v>       0.00000000       0.00000000       0.00000000 </v>
   <v>       0.00000000       0.00000000       0.02631579 </v>
   <v>       0.00000000       0.00000000       0.05263158 </v>
   <v>       0.00000000       0.00000000       0.07894737 </v>
   <v>       0.00000000       0.00000000       0.10526316 </v>
   <v>       0.00000000       0.00000000       0.13157895 </v>
   <v>       0.00000000       0.00000000       0.15789474 </v>
   <v>       0.00000000       0.00000000       0.18421053 </v>
   <v>       0.00000000       0.00000000       0.21052632 </v>
   <v>       0.00000000       0.00000000       0.23684211 </v>
   <v>       0.00000000       0.00000000       0.26315789 </v>
   <v>       0.00000000       0.00000000       0.28947368 </v>
   <v>       0.00000000       0.00000000       0.31578947 </v>
   <v>       0.00000000       0.00000000       0.34210526 </v>
   <v>       0.00000000       0.00000000       0.36842105 </v>
   <v>       0.00000000       0.00000000       0.39473684 </v>
   <v>       0.00000000       0.00000000       0.42105263 </v>
   <v>       0.00000000       0.00000000       0.44736842 </v>
   <v>       0.00000000       0.00000000       0.47368421 </v>
   <v>       0.00000000       0.00000000       0.50000000 </v>
   <v>       0.00000000       0.00000000       0.50000000 </v>
   <v>       0.02631579       0.00000000       0.50000000 </v>
   <v>       0.05263158       0.00000000       0.50000000 </v>
   <v>       0.07894737       0.00000000       0.50000000 </v>
   <v>       0.10526316       0.00000000       0.50000000 </v>
   <v>       0.13157895       0.00000000       0.50000000 </v>
   <v>       0.15789474       0.00000000       0.50000000 </v>
   <v>       0.18421053       0.00000000       0.50000000 </v>
   <v>       0.21052632       0.00000000       0.50000000 </v>
   <v>       0.23684211       0.00000000       0.50000000 </v>
   <v>       0.26315789       0.00000000       0.50000000 </v>
   <v>       0.28947368       0.00000000       0.50000000 </v>
   <v>       0.31578947       0.00000000       0.50000000 </v>
   <v>       0.34210526       0.00000000       0.50000000 </v>
   <v>       0.36842105       0.00000000       0.50000000 </v>
   <v>       0.39473684       0.00000000       0.50000000 </v>
   <v>       0.42105263       0.00000000       0.50000000 </v>
   <v>       0.44736842       0.00000000       0.50000000 </v>
   <v>       0.47368421       0.00000000       0.50000000 </v>
   <v>       0.50000000       0.00000000       0.50000000 </v>
   <v>       0.50000000       0.00000000       0.50000000 </v>
   <v>       0.49122632       0.01754211       0.50000000 </v>
   <v>       0.48245263       0.03508421       0.50000000 </v>
   <v>       0.47367895       0.05262632       0.50000000 </v>
   <v>       0.46490526       0.07016842       0.50000000 </v>
   <v>       0.45613158       0.08771053       0.50000000 </v>
   <v>       0.44735789       0.10525263       0.50000000 </v>
   <v>       0.43858421       0.12279474       0.50000000 </v>
   <v>       0.42981053       0.14033684       0.50000000 </v>
   <v>       0.42103684       0.15787895       0.50000000 </v>
   <v>       0.41226316       0.17542105       0.50000000 </v>
   <v>       0.40348947       0.19296316       0.50000000 </v>
   <v>       0.39471579       0.21050526       0.50000000 </v>
   <v>       0.38594211       0.22804737       0.50000000 </v>
   <v>       0.37716842       0.24558947       0.50000000 </v>
   <v>       0.36839474       0.26313158       0.50000000 </v>
   <v>       0.35962105       0.28067368       0.50000000 </v>
   <v>       0.35084737       0.29821579       0.50000000 </v>
   <v>       0.34207368       0.31575789       0.50000000 </v>
   <v>       0.33330000       0.33330000       0.50000000 </v>
   <v>       0.33330000       0.33330000       0.50000000 </v>
   <v>       0.31575789       0.31575789       0.50000000 </v>
   <v>       0.29821579       0.29821579       0.50000000 </v>
   <v>       0.28067368       0.28067368       0.50000000 </v>
   <v>       0.26313158       0.26313158       0.50000000 </v>
   <v>       0.24558947       0.24558947       0.50000000 </v>
   <v>       0.22804737       0.22804737       0.50000000 </v>
   <v>       0.21050526       0.21050526       0.50000000 </v>
   <v>       0.19296316       0.19296316       0.50000000 </v>
   <v>       0.17542105       0.17542105       0.50000000 </v>
   <v>       0.15787895       0.15787895       0.50000000 </v>
   <v>       0.14033684       0.14033684       0.50000000 </v>
   <v>       0.12279474       0.12279474       0.50000000 </v>
   <v>       0.10525263       0.10525263       0.50000000 </v>
   <v>       0.08771053       0.08771053       0.50000000 </v>
   <v>       0.07016842       0.07016842       0.50000000 </v>
   <v>       0.05262632       0.05262632       0.50000000 </v>
   <v>       0.03508421       0.03508421       0.50000000 </v>
   <v>       0.01754211       0.01754211       0.50000000 </v>
   <v>       0.00000000       0.00000000       0.50000000 </v>
  </varray>
  <varray name="weights" >
   <v>       0.00714286 </v>
   <v>       0.00714286 </v>
   <v>       0.00714286 </v>
   <v>       0.00714286 </v>
   <v>       0.00714286 </v>
   <v>       0.00714286 </v>
   <v>       0.00714286 </v>
   <v>       0.00714286 </v>
   <v>       0.00714286 </v>
   <v>       0.00714286 </v>
   <v>       0.00714286 </v>
   <v>       0.00714286 </v>
   <v>       0.00714286 </v>
   <v>       0.00714286 </v>
   <v>       0.00714286 </v>
   <v>       0.00714286 </v>
   <v>       0.00714286 </v>
   <v>       0.00714286 </v>
   <v>       0.00714286 </v>
   <v>       0.00714286 </v>
   <v>       0.00714286 </v>
   <v>       0.00714286 </v>
   <v>       0.00714286 </v>
   <v>       0.00714286 </v>
   <v>       0.00714286 </v>
   <v>       0.00714286 </v>
   <v>       0.00714286 </v>
   <v>       0.00714286 </v>
   <v>       0.00714286 </v>
   <v>       0.00714286 </v>
   <v>       0.00714286 </v>
   <v>       0.00714286 </v>
   <v>       0.00714286 </v>
   <v>       0.00714286 </v>
   <v>       0.00714286 </v>
   <v>       0.00714286 </v>
   <v>       0.00714286 </v>
   <v>       0.00714286 </v>
   <v>       0.00714286 </v>
   <v>       0.00714286 </v>
   <v>       0.00714286 </v>
   <v>       0.00714286 </v>
   <v>       0.00714286 </v>
   <v>       0.00714286 </v>
   <v>       0.00714286 </v>
   <v>       0.00714286 </v>
   <v>       0.00714286 </v>
   <v>       0.00714286 </v>
   <v>       0.00714286 </v>
   <v>       0.00714286 </v>
   <v>       0.00714286 </v>
   <v>       0.00714286 </v>
   <v>       0.00714286 </v>
   <v>       0.00714286 </v>
   <v>       0.00714286 </v>
   <v>       0.00714286 </v>
   <v>       0.00714286 </v>
   <v>       0.00714286 </v>
   <v>       0.00714286 </v>
   <v>       0.00714286 </v>
   <v>       0.00714286 </v>
   <v>       0.00714286 </v>
   <v>       0.00714286 </v>
   <v>       0.00714286 </v>
   <v>       0.00714286 </v>
   <v>       0.00714286 </v>
   <v>       0.00714286 </v>
   <v>       0.00714286 </v>
   <v>       0.00714286 </v>
   <v>       0.00714286 </v>
   <v>       0.00714286 </v>
   <v>       0.00714286 </v>
   <v>       0.00714286 </v>
   <v>       0.00714286 </v>
   <v>       0.00714286 </v>
   <v>       0.00714286 </v>
   <v>       0.00714286 </v>
   <v>       0.00714286 </v>
   <v>       0.00714286 </v>
   <v>       0.00714286 </v>
   <v>       0.00714286 </v>
   <v>       0.00714286 </v>
   <v>       0.00714286 </v>
   <v>       0.00714286 </v>
   <v>       0.00714286 </v>
   <v>       0.00714286 </v>
   <v>       0.00714286 </v>
   <v>       0.00714286 </v>
   <v>       0.00714286 </v>
   <v>       0.00714286 </v>
   <v>       0.00714286 </v>
   <v>       0.00714286 </v>
   <v>       0.00714286 </v>
   <v>       0.00714286 </v>
   <v>       0.00714286 </v>
   <v>       0.00714286 </v>
   <v>       0.00714286 </v>
   <v>       0.00714286 </v>
   <v>       0.00714286 </v>
   <v>       0.00714286 </v>
   <v>       0.00714286 </v>
   <v>       0.00714286 </v>
   <v>       0.00714286 </v>
   <v>       0.00714286 </v>
   <v>       0.00714286 </v>
   <v>       0.00714286 </v>
   <v>       0.00714286 </v>
   <v>       0.00714286 </v>
   <v>       0.00714286 </v>
   <v>       0.00714286 </v>
   <v>       0.00714286 </v>
   <v>       0.00714286 </v>
   <v>       0.00714286 </v>
   <v>       0.00714286 </v>
   <v>       0.00714286 </v>
   <v>       0.00714286 </v>
   <v>       0.00714286 </v>
   <v>       0.00714286 </v>
   <v>       0.00714286 </v>
   <v>       0.00714286 </v>
   <v>       0.00714286 </v>
   <v>       0.00714286 </v>
   <v>       0.00714286 </v>
   <v>       0.00714286 </v>
   <v>       0.00714286 </v>
   <v>       0.00714286 </v>
   <v>       0.00714286 </v>
   <v>       0.00714286 </v>
   <v>       0.00714286 </v>
   <v>       0.00714286 </v>
   <v>       0.00714286 </v>
   <v>       0.00714286 </v>
   <v>       0.00714286 </v>
   <v>       0.00714286 </v>
   <v>       0.00714286 </v>
   <v>       0.00714286 </v>
   <v>       0.00714286 </v>
   <v>       0.00714286 </v>
   <v>       0.00714286 </v>
   <v>       0.00714286 </v>
  </varray>
 </kpoints>
 <parameters>
  <separator name="general" >
   <i type="string" name="SYSTEM">unknown system</i>
   <i type="logical" name="LCOMPAT"> F  </i>
  </separator>
  <separator name="electronic" >
   <i type="string" name="PREC">accura</i>
   <i name="ENMAX">    450.00000000</i>
   <i name="ENAUG">    345.27800000</i>
   <i name="EDIFF">      0.00000100</i>
   <i type="int" name="IALGO">    68</i>
   <i type="int" name="IWAVPR">    10</i>
   <i type="int" name="NBANDS">    14</i>
   <i name="NELECT">     18.00000000</i>
   <i type="int" name="TURBO">     0</i>
   <i type="int" name="IRESTART">     0</i>
   <i type="int" name="NREBOOT">     0</i>
   <i type="int" name="NMIN">     0</i>
   <i name="EREF">      0.00000000</i>
   <separator name="electronic smearing" >
    <i type="int" name="ISMEAR">     0</i>
    <i name="SIGMA">      0.20000000</i>
    <i name="KSPACING">      0.50000000</i>
    <i type="logical" name="KGAMMA"> T  </i>
   </separator>
   <separator name="electronic projectors" >
    <i type="logical" name="LREAL"> F  </i>
    <v name="ROPT">      0.00000000      0.00000000</v>
    <i type="int" name="LMAXPAW">  -100</i>
    <i type="int" name="LMAXMIX">     2</i>
    <i type="logical" name="NLSPLINE"> F  </i>
   </separator>
   <separator name="electronic startup" >
    <i type="int" name="ISTART">     0</i>
    <i type="int" name="ICHARG">    11</i>
    <i type="int" name="INIWAV">     1</i>
   </separator>
   <separator name="electronic spin" >
    <i type="int" name="ISPIN">     1</i>
    <i type="logical" name="LNONCOLLINEAR"> F  </i>
    <v name="MAGMOM">      1.00000000      1.00000000      1.00000000</v>
    <i name="NUPDOWN">     -1.00000000</i>
    <i type="logical" name="LSORBIT"> F  </i>
    <v name="SAXIS">      0.00000000      0.00000000      1.00000000</v>
    <i type="logical" name="LSPIRAL"> F  </i>
    <v name="QSPIRAL">      0.00000000      0.00000000      0.00000000</v>
    <i type="logical" name="LZEROZ"> F  </i>
   </separator>
   <separator name="electronic exchange-correlation" >
    <i type="logical" name="LASPH"> F  </i>
    <i type="logical" name="LMETAGGA"> F  </i>
   </separator>
   <separator name="electronic convergence" >
    <i type="int" name="NELM">    60</i>
    <i type="int" name="NELMDL">    -5</i>
    <i type="int" name="NELMIN">     4</i>
    <i name="ENINI">    450.00000000</i>
    <separator name="electronic convergence detail" >
     <i type="logical" name="LDIAG"> T  </i>
     <i type="logical" name="LSUBROT"> F  </i>
     <i name="WEIMIN">      0.00000000</i>
     <i name="EBREAK">      0.00000002</i>
     <i name="DEPER">      0.30000000</i>
     <i type="int" name="NRMM">     4</i>
     <i name="TIME">      0.40000000</i>
    </separator>
   </separator>
   <separator name="electronic mixer" >
    <i name="AMIX">      0.40000000</i>
    <i name="BMIX">      1.00000000</i>
    <i name="AMIN">      0.10000000</i>
    <i name="AMIX_MAG">      1.60000000</i>
    <i name="BMIX_MAG">      1.00000000</i>
    <separator name="electronic mixer details" >
     <i type="int" name="IMIX">     4</i>
     <i type="logical" name="MIXFIRST"> F  </i>
     <i type="int" name="MAXMIX">   -45</i>
     <i name="WC">    100.00000000</i>
     <i type="int" name="INIMIX">     1</i>
     <i type="int" name="MIXPRE">     1</i>
     <i type="int" name="MREMOVE">     5</i>
    </separator>
   </separator>
   <separator name="electronic dipolcorrection" >
    <i type="logical" name="LDIPOL"> F  </i>
    <i type="logical" name="LMONO"> F  </i>
    <i type="int" name="IDIPOL">     0</i>
    <i name="EPSILON">      1.00000000</i>
    <v name="DIPOL">   -100.00000000   -100.00000000   -100.00000000</v>
    <i name="EFIELD">      0.00000000</i>
   </separator>
  </separator>
  <separator name="grids" >
   <i type="int" name="NGX">    24</i>
   <i type="int" name="NGY">    24</i>
   <i type="int" name="NGZ">   216</i>
   <i type="int" name="NGXF">    48</i>
   <i type="int" name="NGYF">    48</i>
   <i type="int" name="NGZF">   432</i>
   <i type="logical" name="ADDGRID"> F  </i>
  </separator>
  <separator name="ionic" >
   <i type="int" name="NSW">     0</i>
   <i type="int" name="IBRION">    -1</i>
   <i type="int" name="MDALGO">     0</i>
   <i type="int" name="ISIF">     2</i>
   <i name="PSTRESS">      0.00000000</i>
   <i name="EDIFFG">      0.00001000</i>
   <i type="int" name="NFREE">     0</i>
   <i name="POTIM">      0.50000000</i>
   <i name="SMASS">     -3.00000000</i>
   <i name="SCALEE">      1.00000000</i>
  </separator>
  <separator name="ionic md" >
   <i name="TEBEG">      0.00010000</i>
   <i name="TEEND">      0.00010000</i>
   <i type="int" name="NBLOCK">     1</i>
   <i type="int" name="KBLOCK">     1</i>
   <i type="int" name="NPACO">   256</i>
   <i name="APACO">     16.00000000</i>
  </separator>
  <separator name="symmetry" >
   <i type="int" name="ISYM">     2</i>
   <i name="SYMPREC">      0.00001000</i>
  </separator>
  <separator name="dos" >
   <i type="int" name="LORBIT">    11</i>
   <v name="RWIGS">     -1.00000000     -1.00000000</v>
   <i type="int" name="NEDOS">  2401</i>
   <i name="EMIN">    -12.00000000</i>
   <i name="EMAX">     12.00000000</i>
   <i name="EFERMI">      0.00000000</i>
  </separator>
  <separator name="writing" >
   <i type="int" name="NWRITE">     2</i>
   <i type="logical" name="LWAVE"> F  </i>
   <i type="logical" name="LDOWNSAMPLE"> F  </i>
   <i type="logical" name="LCHARG"> T  </i>
   <i type="logical" name="LPARD"> F  </i>
   <i type="logical" name="LVTOT"> F  </i>
   <i type="logical" name="LVHAR"> F  </i>
   <i type="logical" name="LELF"> T  </i>
   <i type="logical" name="LOPTICS"> F  </i>
   <v name="STM">      0.00000000      0.00000000      0.00000000      0.00000000      0.00000000      0.00000000      0.00000000</v>
  </separator>
  <separator name="performance" >
   <i type="int" name="NPAR">     2</i>
   <i type="int" name="NSIM">     4</i>
   <i type="int" name="NBLK">    -1</i>
   <i type="logical" name="LPLANE"> T  </i>
   <i type="logical" name="LSCALAPACK"> T  </i>
   <i type="logical" name="LSCAAWARE"> F  </i>
   <i type="logical" name="LSCALU"> F  </i>
   <i type="logical" name="LASYNC"> F  </i>
   <i type="logical" name="LORBITALREAL"> F  </i>
  </separator>
  <separator name="miscellaneous" >
   <i type="int" name="IDIOT">     3</i>
   <i type="int" name="ISPECIAL">     0</i>
   <i type="logical" name="LMUSIC"> F  </i>
   <v name="POMASS">     95.94000000     32.06600000</v>
   <v name="DARWINR">      0.00000000      0.00000000</v>
   <v name="DARWINV">      1.00000000      1.00000000</v>
   <i type="logical" name="LCORR"> T  </i>
  </separator>
  <i type="logical" name="GGA_COMPAT"> T  </i>
  <i type="logical" name="LBERRY"> F  </i>
  <i type="int" name="ICORELEVEL">     0</i>
  <i type="logical" name="LDAU"> F  </i>
  <i type="int" name="I_CONSTRAINED_M">     0</i>
  <separator name="electronic exchange-correlation" >
   <i type="string" name="GGA">--</i>
   <i type="int" name="VOSKOWN">     0</i>
   <i type="logical" name="LHFCALC"> F  </i>
   <i type="string" name="PRECFOCK"></i>
   <i type="logical" name="LSYMGRAD"> F  </i>
   <i type="logical" name="LHFONE"> F  </i>
   <i type="logical" name="LRHFCALC"> F  </i>
   <i type="logical" name="LTHOMAS"> F  </i>
   <i type="logical" name="LMODELHF"> F  </i>
   <i name="ENCUT4O">     -1.00000000</i>
   <i type="int" name="EXXOEP">     0</i>
   <i type="int" name="FOURORBIT">     0</i>
   <i name="AEXX">      0.00000000</i>
   <i name="HFALPHA">      0.00000000</i>
   <i name="MCALPHA">      0.00000000</i>
   <i name="ALDAX">      1.00000000</i>
   <i name="AGGAX">      1.00000000</i>
   <i name="ALDAC">      1.00000000</i>
   <i name="AGGAC">      1.00000000</i>
   <i type="int" name="NKREDX">     1</i>
   <i type="int" name="NKREDY">     1</i>
   <i type="int" name="NKREDZ">     1</i>
   <i type="logical" name="SHIFTRED"> F  </i>
   <i type="logical" name="ODDONLY"> F  </i>
   <i type="logical" name="EVENONLY"> F  </i>
   <i type="int" name="LMAXFOCK">     0</i>
   <i type="int" name="NMAXFOCKAE">     0</i>
   <i type="logical" name="LFOCKAEDFT"> F  </i>
   <i name="HFSCREEN">      0.00000000</i>
   <i name="HFSCREENC">      0.00000000</i>
   <i type="int" name="NBANDSGWLOW">     0</i>
  </separator>
  <separator name="vdW DFT" >
   <i type="logical" name="LUSE_VDW"> F  </i>
   <i name="Zab_VDW">     -0.84910000</i>
   <i name="PARAM1">      0.12340000</i>
   <i name="PARAM2">      1.00000000</i>
   <i name="PARAM3">      0.00000000</i>
  </separator>
  <separator name="model GW" >
   <i type="int" name="MODEL_GW">     0</i>
   <i name="MODEL_EPS0">     54.27112410</i>
   <i name="MODEL_ALPHA">      1.00000000</i>
  </separator>
  <separator name="linear response parameters" >
   <i type="logical" name="LEPSILON"> F  </i>
   <i type="logical" name="LRPA"> F  </i>
   <i type="logical" name="LNABLA"> F  </i>
   <i type="logical" name="LVEL"> F  </i>
   <i type="int" name="KINTER">     0</i>
   <i name="CSHIFT">      0.10000000</i>
   <i name="OMEGAMAX">     -1.00000000</i>
   <i name="DEG_THRESHOLD">      0.00200000</i>
   <i name="RTIME">     -0.10000000</i>
   <i name="WPLASMAI">      0.00000000</i>
   <v name="DFIELD">      0.00000000      0.00000000      0.00000000</v>
   <v name="WPLASMA">      0.00000000      0.00000000      0.00000000      0.00000000      0.00000000      0.00000000      0.00000000      0.00000000      0.00000000</v>
  </separator>
  <separator name="orbital magnetization" >
   <i type="logical" name="NUCIND"> F  </i>
   <v name="MAGPOS">      0.00000000      0.00000000      0.00000000</v>
   <i type="logical" name="LNICSALL"> T  </i>
   <i type="logical" name="ORBITALMAG"> F  </i>
   <i type="logical" name="LMAGBLOCH"> F  </i>
   <i type="logical" name="LCHIMAG"> F  </i>
   <i type="logical" name="LGAUGE"> T  </i>
   <i type="int" name="MAGATOM">     0</i>
   <v name="MAGDIPOL">      0.00000000      0.00000000      0.00000000</v>
   <v name="AVECCONST">      0.00000000      0.00000000      0.00000000</v>
  </separator>
  <separator name="response functions" >
   <i type="logical" name="LADDER"> F  </i>
   <i type="logical" name="LRPAFORCE"> F  </i>
   <i type="logical" name="LFXC"> F  </i>
   <i type="logical" name="LHARTREE"> T  </i>
   <i type="int" name="IBSE">     0</i>
   <v type="int" name="KPOINT">    -1     0     0     0</v>
   <i type="logical" name="LTCTE"> F  </i>
   <i type="logical" name="LTETE"> F  </i>
   <i type="logical" name="LTRIPLET"> F  </i>
   <i type="logical" name="LFXCEPS"> F  </i>
   <i type="logical" name="LFXHEG"> F  </i>
   <i type="int" name="NATURALO">     2</i>
   <i type="logical" name="L2ORDER"> F  </i>
   <i type="logical" name="LMP2LT"> F  </i>
   <i type="logical" name="LUSEW"> F  </i>
   <i name="ENCUTGW">     -2.00000000</i>
   <i name="ENCUTGWSOFT">     -2.00000000</i>
   <i name="ENCUTLF">     -1.00000000</i>
   <i type="int" name="LMAXMP2">    -1</i>
   <i name="SCISSOR">      0.00000000</i>
   <i type="int" name="NOMEGA">     0</i>
   <i type="int" name="NOMEGAR">     0</i>
   <i type="int" name="NBANDSGW">    -1</i>
   <i type="int" name="NBANDSO">    -1</i>
   <i type="int" name="NBANDSV">    -1</i>
   <i type="int" name="NELM">     1</i>
   <i type="int" name="NELMHF">     1</i>
   <i type="int" name="DIM">     3</i>
   <i type="int" name="ANTIRES">     0</i>
   <i name="OMEGAMAX">    -30.00000000</i>
   <i name="OMEGAMIN">    -30.00000000</i>
   <i name="OMEGATL">   -200.00000000</i>
   <i type="int" name="OMEGAGRID">   140</i>
   <i name="CSHIFT">     -0.10000000</i>
   <i type="logical" name="SELFENERGY"> F  </i>
   <i type="logical" name="LSPECTRAL"> F  </i>
   <i type="logical" name="LSPECTRALGW"> F  </i>
   <i type="logical" name="LSINGLES"> F  </i>
   <i type="logical" name="LFERMIGW"> F  </i>
   <i type="logical" name="ODDONLYGW"> F  </i>
   <i type="logical" name="EVENONLYGW"> F  </i>
   <i type="int" name="NKREDLFX">     1</i>
   <i type="int" name="NKREDLFY">     1</i>
   <i type="int" name="NKREDLFZ">     1</i>
   <i type="int" name="MAXMEM">  2800</i>
   <i type="int" name="TELESCOPE">     0</i>
   <i type="int" name="TAUPAR">     1</i>
   <i type="int" name="OMEGAPAR">    -1</i>
   <i name="LAMBDA">      1.00000000</i>
  </separator>
  <separator name="External order field" >
   <i name="OFIELD_KAPPA">      0.00000000</i>
   <v name="OFIELD_K">      0.00000000      0.00000000      0.00000000</v>
   <i name="OFIELD_Q6_NEAR">      0.00000000</i>
   <i name="OFIELD_Q6_FAR">      0.00000000</i>
   <i name="OFIELD_A">      0.00000000</i>
  </separator>
 </parameters>
 <atominfo>
  <atoms>       3 </atoms>
  <types>       2 </types>
  <array name="atoms" >
   <dimension dim="1">ion</dimension>
   <field type="string">element</field>
   <field type="int">atomtype</field>
   <set>
    <rc><c>Mo</c><c>   1</c></rc>
    <rc><c>S </c><c>   2</c></rc>
    <rc><c>S </c><c>   2</c></rc>
   </set>
  </array>
  <array name="atomtypes" >
   <dimension dim="1">type</dimension>
   <field type="int">atomspertype</field>
   <field type="string">element</field>
   <field>mass</field>
   <field>valence</field>
   <field type="string">pseudopotential</field>
   <set>
    <rc><c>   1</c><c>Mo</c><c>     95.94000000</c><c>      6.00000000</c><c> PAW_PBE Mo 08Apr2002                   </c></rc>
    <rc><c>   2</c><c>S </c><c>     32.06600000</c><c>      6.00000000</c><c>  PAW_PBE S 17Jan2003                   </c></rc>
   </set>
  </array>
 </atominfo>
 <structure name="initialpos" >
  <crystal>
   <varray name="basis" >
    <v>       3.18985683       0.00000000       0.00000000 </v>
    <v>      -1.59492842       2.76249705       0.00000000 </v>
    <v>       0.00000000       0.00000000      30.79397887 </v>
   </varray>
   <i name="volume">    271.35562051 </i>
   <varray name="rec_basis" >
    <v>       0.31349369       0.18099567       0.00000000 </v>
    <v>       0.00000000       0.36199134       0.00000000 </v>
    <v>       0.00000000       0.00000000       0.03247388 </v>
   </varray>
  </crystal>
  <varray name="positions" >
   <v>       0.33333300       0.66666700       0.12046214 </v>
   <v>       0.66666700       0.33333300       0.06984045 </v>
   <v>       0.66666600       0.33333300       0.17108384 </v>
  </varray>
 </structure>
 <calculation>
  <scstep>
   <time name="dav">    7.59    7.59</time>
   <time name="total">    7.77    7.81</time>
   <energy>
    <i name="alphaZ">     10.92610231 </i>
    <i name="ewald">   5354.53473861 </i>
    <i name="hartreedc">  -6041.40236045 </i>
    <i name="XCdc">    -35.17117045 </i>
    <i name="pawpsdc">    473.39069734 </i>
    <i name="pawaedc">   -397.59830514 </i>
    <i name="eentropy">     -0.03846679 </i>
    <i name="bandstr">    -11.43654972 </i>
    <i name="atom">    771.15511399 </i>
    <i name="e_fr_energy">    124.35979970 </i>
    <i name="e_wo_entrp">    124.39826649 </i>
    <i name="e_0_energy">    124.37903309 </i>
   </energy>
  </scstep>
  <scstep>
   <time name="dav">   11.67   11.67</time>
   <time name="total">   11.69   11.69</time>
   <energy>
    <i name="e_fr_energy">     -5.08266684 </i>
    <i name="e_wo_entrp">     -5.08100954 </i>
    <i name="e_0_energy">     -5.08183819 </i>
   </energy>
  </scstep>
  <scstep>
   <time name="dav">    9.41    9.41</time>
   <time name="total">    9.43    9.44</time>
   <energy>
    <i name="e_fr_energy">    -20.44437468 </i>
    <i name="e_wo_entrp">    -20.44437468 </i>
    <i name="e_0_energy">    -20.44437468 </i>
   </energy>
  </scstep>
  <scstep>
   <time name="dav">    9.14    9.14</time>
   <time name="total">    9.16    9.16</time>
   <energy>
    <i name="e_fr_energy">    -20.77074878 </i>
    <i name="e_wo_entrp">    -20.77074878 </i>
    <i name="e_0_energy">    -20.77074878 </i>
   </energy>
  </scstep>
  <scstep>
   <time name="dav">    9.03    9.03</time>
   <time name="total">    9.05    9.05</time>
   <energy>
    <i name="e_fr_energy">    -20.77915881 </i>
    <i name="e_wo_entrp">    -20.77915881 </i>
    <i name="e_0_energy">    -20.77915881 </i>
   </energy>
  </scstep>
  <scstep>
   <time name="diag">    1.62    1.62</time>
   <time name="diis">    7.04    7.03</time>
   <time name="orth">    0.07    0.07</time>
   <time name="total">    8.75    8.75</time>
   <energy>
    <i name="e_fr_energy">    -20.77942368 </i>
    <i name="e_wo_entrp">    -20.77942368 </i>
    <i name="e_0_energy">    -20.77942368 </i>
   </energy>
  </scstep>
  <scstep>
   <time name="diag">    1.63    1.63</time>
   <time name="diis">    9.48    9.48</time>
   <time name="orth">    0.07    0.07</time>
   <time name="total">   11.20   11.20</time>
   <energy>
    <i name="e_fr_energy">    -20.77945621 </i>
    <i name="e_wo_entrp">    -20.77945621 </i>
    <i name="e_0_energy">    -20.77945621 </i>
   </energy>
  </scstep>
  <scstep>
   <time name="diag">    1.62    1.63</time>
   <time name="diis">    6.03    6.02</time>
   <time name="orth">    0.07    0.07</time>
   <time name="total">    7.74    7.74</time>
   <energy>
    <i name="alphaZ">     10.92610231 </i>
    <i name="ewald">   5354.53473861 </i>
    <i name="hartreedc">  -6041.40236045 </i>
    <i name="XCdc">    -35.17117045 </i>
    <i name="pawpsdc">    473.39069734 </i>
    <i name="pawaedc">   -397.59830514 </i>
    <i name="eentropy">     -0.00000000 </i>
    <i name="bandstr">   -156.61427199 </i>
    <i name="atom">    771.15511399 </i>
    <i name="e_fr_energy">    -20.77945578 </i>
    <i name="e_wo_entrp">    -20.77945578 </i>
    <i name="e_0_energy">    -20.77945578 </i>
   </energy>
  </scstep>
  <structure>
   <crystal>
    <varray name="basis" >
     <v>       3.18985683       0.00000000       0.00000000 </v>
     <v>      -1.59492842       2.76249705       0.00000000 </v>
     <v>       0.00000000       0.00000000      30.79397887 </v>
    </varray>
    <i name="volume">    271.35562051 </i>
    <varray name="rec_basis" >
     <v>       0.31349369       0.18099567       0.00000000 </v>
     <v>       0.00000000       0.36199134       0.00000000 </v>
     <v>       0.00000000       0.00000000       0.03247388 </v>
    </varray>
   </crystal>
   <varray name="positions" >
    <v>       0.33333300       0.66666700       0.12046214 </v>
    <v>       0.66666700       0.33333300       0.06984045 </v>
    <v>       0.66666600       0.33333300       0.17108384 </v>
   </varray>
  </structure>
  <varray name="forces" >
   <v>      -0.00000000       0.00000000      -0.00000000 </v>
   <v>       0.00000000      -0.00000000       0.40763897 </v>
   <v>       0.00000000      -0.00000000      -0.40763897 </v>
  </varray>
  <varray name="stress" >
   <v>       2.46511626       0.00000000       0.00000000 </v>
   <v>       0.00000000       2.46511626       0.00000000 </v>
   <v>       0.00000000       0.00000000       4.00316811 </v>
  </varray>
  <energy>
   <i name="e_fr_energy">    -20.77945578 </i>
   <i name="e_wo_entrp">    -20.77945578 </i>
   <i name="e_0_energy">     -0.00000000 </i>
  </energy>
  <time name="totalsc">   80.18   80.25</time>
  <eigenvalues>
   <array>
    <dimension dim="1">band</dimension>
    <dimension dim="2">kpoint</dimension>
    <dimension dim="3">spin</dimension>
    <field>eigene</field>
    <field>occ</field>
    <set>
     <set comment="spin 1">
      <set comment="kpoint 1">
       <r>  -17.8056    1.0000 </r>
       <r>  -16.5772    1.0000 </r>
       <r>   -9.3248    1.0000 </r>
       <r>   -6.3797    1.0000 </r>
       <r>   -6.3797    1.0000 </r>
       <r>   -5.4675    1.0000 </r>
       <r>   -5.2594    1.0000 </r>
       <r>   -5.2593    1.0000 </r>
       <r>   -3.7482    1.0000 </r>
       <r>   -0.9819    0.0000 </r>
       <r>   -0.9819    0.0000 </r>
       <r>   -0.7468    0.0000 </r>
       <r>   -0.7467    0.0000 </r>
       <r>    1.6737    0.0000 </r>
      </set>
      <set comment="kpoint 2">
       <r>  -17.7958    1.0000 </r>
       <r>  -16.5726    1.0000 </r>
       <r>   -9.3132    1.0000 </r>
       <r>   -6.4032    1.0000 </r>
       <r>   -6.3689    1.0000 </r>
       <r>   -5.5740    1.0000 </r>
       <r>   -5.2765    1.0000 </r>
       <r>   -5.1673    1.0000 </r>
       <r>   -3.7529    1.0000 </r>
       <r>   -0.9996    0.0000 </r>
       <r>   -0.9634    0.0000 </r>
       <r>   -0.7786    0.0000 </r>
       <r>   -0.7589    0.0000 </r>
       <r>    1.6890    0.0000 </r>
      </set>
      <set comment="kpoint 3">
       <r>  -17.7667    1.0000 </r>
       <r>  -16.5588    1.0000 </r>
       <r>   -9.2786    1.0000 </r>
       <r>   -6.4717    1.0000 </r>
       <r>   -6.3366    1.0000 </r>
       <r>   -5.7522    1.0000 </r>
       <r>   -5.3264    1.0000 </r>
       <r>   -5.0335    1.0000 </r>
       <r>   -3.7679    1.0000 </r>
       <r>   -1.0471    0.0000 </r>
       <r>   -0.9095    0.0000 </r>
       <r>   -0.8673    0.0000 </r>
       <r>   -0.7943    0.0000 </r>
       <r>    1.7515    0.0000 </r>
      </set>
      <set comment="kpoint 4">
       <r>  -17.7186    1.0000 </r>
       <r>  -16.5361    1.0000 </r>
       <r>   -9.2226    1.0000 </r>
       <r>   -6.5800    1.0000 </r>
       <r>   -6.2836    1.0000 </r>
       <r>   -5.9454    1.0000 </r>
       <r>   -5.4053    1.0000 </r>
       <r>   -4.9188    1.0000 </r>
       <r>   -3.7961    1.0000 </r>
       <r>   -1.1093    0.0000 </r>
       <r>   -0.9954    0.0000 </r>
       <r>   -0.8503    0.0000 </r>
       <r>   -0.8248    0.0000 </r>
       <r>    1.8363    0.0000 </r>
      </set>
      <set comment="kpoint 5">
       <r>  -17.6522    1.0000 </r>
       <r>  -16.5047    1.0000 </r>
       <r>   -9.1477    1.0000 </r>
       <r>   -6.7199    1.0000 </r>
       <r>   -6.2108    1.0000 </r>
       <r>   -6.1451    1.0000 </r>
       <r>   -5.5074    1.0000 </r>
       <r>   -4.8371    1.0000 </r>
       <r>   -3.8418    1.0000 </r>
       <r>   -1.1663    0.0000 </r>
       <r>   -1.1416    0.0000 </r>
       <r>   -0.9231    0.0000 </r>
       <r>   -0.7159    0.0000 </r>
       <r>    2.0019    0.0000 </r>
      </set>
      <set comment="kpoint 6">
       <r>  -17.5686    1.0000 </r>
       <r>  -16.4653    1.0000 </r>
       <r>   -9.0579    1.0000 </r>
       <r>   -6.8819    1.0000 </r>
       <r>   -6.3487    1.0000 </r>
       <r>   -6.1199    1.0000 </r>
       <r>   -5.6268    1.0000 </r>
       <r>   -4.7954    1.0000 </r>
       <r>   -3.9097    1.0000 </r>
       <r>   -1.2854    0.0000 </r>
       <r>   -1.1989    0.0000 </r>
       <r>   -1.0079    0.0000 </r>
       <r>   -0.5903    0.0000 </r>
       <r>    2.0804    0.0000 </r>
      </set>
      <set comment="kpoint 7">
       <r>  -17.4690    1.0000 </r>
       <r>  -16.4185    1.0000 </r>
       <r>   -8.9595    1.0000 </r>
       <r>   -7.0548    1.0000 </r>
       <r>   -6.5548    1.0000 </r>
       <r>   -6.0129    1.0000 </r>
       <r>   -5.7574    1.0000 </r>
       <r>   -4.7962    1.0000 </r>
       <r>   -4.0030    1.0000 </r>
       <r>   -1.4097    0.0000 </r>
       <r>   -1.1936    0.0000 </r>
       <r>   -1.0997    0.0000 </r>
       <r>   -0.4554    0.0000 </r>
       <r>    2.2206    0.0000 </r>
      </set>
      <set comment="kpoint 8">
       <r>  -17.3551    1.0000 </r>
       <r>  -16.3651    1.0000 </r>
       <r>   -8.8618    1.0000 </r>
       <r>   -7.2265    1.0000 </r>
       <r>   -6.7626    1.0000 </r>
       <r>   -5.8938    1.0000 </r>
       <r>   -5.8923    1.0000 </r>
       <r>   -4.8360    1.0000 </r>
       <r>   -4.1209    1.0000 </r>
       <r>   -1.5027    0.0000 </r>
       <r>   -1.1934    0.0000 </r>
       <r>   -1.1448    0.0000 </r>
       <r>   -0.3178    0.0000 </r>
       <r>    2.4050    0.0000 </r>
      </set>
      <set comment="kpoint 9">
       <r>  -17.2289    1.0000 </r>
       <r>  -16.3061    1.0000 </r>
       <r>   -8.7789    1.0000 </r>
       <r>   -7.3824    1.0000 </r>
       <r>   -6.9710    1.0000 </r>
       <r>   -6.0313    1.0000 </r>
       <r>   -5.7613    1.0000 </r>
       <r>   -4.9063    1.0000 </r>
       <r>   -4.2571    1.0000 </r>
       <r>   -1.5591    0.0000 </r>
       <r>   -1.2844    0.0000 </r>
       <r>   -1.0547    0.0000 </r>
       <r>   -0.1833    0.0000 </r>
       <r>    2.5571    0.0000 </r>
      </set>
      <set comment="kpoint 10">
       <r>  -17.0927    1.0000 </r>
       <r>  -16.2428    1.0000 </r>
       <r>   -8.7289    1.0000 </r>
       <r>   -7.5067    1.0000 </r>
       <r>   -7.1788    1.0000 </r>
       <r>   -6.1663    1.0000 </r>
       <r>   -5.6235    1.0000 </r>
       <r>   -4.9961    1.0000 </r>
       <r>   -4.3992    1.0000 </r>
       <r>   -1.5794    0.0000 </r>
       <r>   -1.3685    0.0000 </r>
       <r>   -0.9310    0.0000 </r>
       <r>   -0.0562    0.0000 </r>
       <r>    2.7488    0.0000 </r>
      </set>
      <set comment="kpoint 11">
       <r>  -16.9494    1.0000 </r>
       <r>  -16.1767    1.0000 </r>
       <r>   -8.7294    1.0000 </r>
       <r>   -7.5867    1.0000 </r>
       <r>   -7.3838    1.0000 </r>
       <r>   -6.2955    1.0000 </r>
       <r>   -5.4828    1.0000 </r>
       <r>   -5.0947    1.0000 </r>
       <r>   -4.5311    1.0000 </r>
       <r>   -1.5681    0.0000 </r>
       <r>   -1.4422    0.0000 </r>
       <r>   -0.7839    0.0000 </r>
       <r>    0.0602    0.0000 </r>
       <r>    2.9528    0.0000 </r>
      </set>
      <set comment="kpoint 12">
       <r>  -16.8023    1.0000 </r>
       <r>  -16.1094    1.0000 </r>
       <r>   -8.7849    1.0000 </r>
       <r>   -7.6243    1.0000 </r>
       <r>   -7.5833    1.0000 </r>
       <r>   -6.4163    1.0000 </r>
       <r>   -5.3437    1.0000 </r>
       <r>   -5.1931    1.0000 </r>
       <r>   -4.6356    1.0000 </r>
       <r>   -1.5315    0.0000 </r>
       <r>   -1.5029    0.0000 </r>
       <r>   -0.6242    0.0000 </r>
       <r>    0.1638    0.0000 </r>
       <r>    3.1596    0.0000 </r>
      </set>
      <set comment="kpoint 13">
       <r>  -16.6551    1.0000 </r>
       <r>  -16.0426    1.0000 </r>
       <r>   -8.8822    1.0000 </r>
       <r>   -7.7736    1.0000 </r>
       <r>   -7.6384    1.0000 </r>
       <r>   -6.5269    1.0000 </r>
       <r>   -5.2851    1.0000 </r>
       <r>   -5.2107    1.0000 </r>
       <r>   -4.6988    1.0000 </r>
       <r>   -1.5487    0.0000 </r>
       <r>   -1.4761    0.0000 </r>
       <r>   -0.4623    0.0000 </r>
       <r>    0.2535    0.0000 </r>
       <r>    3.3607    0.0000 </r>
      </set>
      <set comment="kpoint 14">
       <r>  -16.5121    1.0000 </r>
       <r>  -15.9785    1.0000 </r>
       <r>   -9.0013    1.0000 </r>
       <r>   -7.9507    1.0000 </r>
       <r>   -7.6507    1.0000 </r>
       <r>   -6.6254    1.0000 </r>
       <r>   -5.3669    1.0000 </r>
       <r>   -5.0880    1.0000 </r>
       <r>   -4.7132    1.0000 </r>
       <r>   -1.5793    0.0000 </r>
       <r>   -1.4079    0.0000 </r>
       <r>   -0.3074    0.0000 </r>
       <r>    0.3292    0.0000 </r>
       <r>    3.5187    0.0000 </r>
      </set>
      <set comment="kpoint 15">
       <r>  -16.3783    1.0000 </r>
       <r>  -15.9192    1.0000 </r>
       <r>   -9.1250    1.0000 </r>
       <r>   -8.1102    1.0000 </r>
       <r>   -7.6733    1.0000 </r>
       <r>   -6.7108    1.0000 </r>
       <r>   -5.4363    1.0000 </r>
       <r>   -4.9796    1.0000 </r>
       <r>   -4.6816    1.0000 </r>
       <r>   -1.5957    0.0000 </r>
       <r>   -1.3324    0.0000 </r>
       <r>   -0.1676    0.0000 </r>
       <r>    0.3912    0.0000 </r>
       <r>    3.4419    0.0000 </r>
      </set>
      <set comment="kpoint 16">
       <r>  -16.2586    1.0000 </r>
       <r>  -15.8668    1.0000 </r>
       <r>   -9.2410    1.0000 </r>
       <r>   -8.2478    1.0000 </r>
       <r>   -7.7068    1.0000 </r>
       <r>   -6.7818    1.0000 </r>
       <r>   -5.4926    1.0000 </r>
       <r>   -4.8884    1.0000 </r>
       <r>   -4.6160    1.0000 </r>
       <r>   -1.6002    0.0000 </r>
       <r>   -1.2552    0.0000 </r>
       <r>   -0.0489    0.0000 </r>
       <r>    0.4402    0.0000 </r>
       <r>    3.1648    0.0000 </r>
      </set>
      <set comment="kpoint 17">
       <r>  -16.1584    1.0000 </r>
       <r>  -15.8234    1.0000 </r>
       <r>   -9.3406    1.0000 </r>
       <r>   -8.3596    1.0000 </r>
       <r>   -7.7448    1.0000 </r>
       <r>   -6.8378    1.0000 </r>
       <r>   -5.5358    1.0000 </r>
       <r>   -4.8163    1.0000 </r>
       <r>   -4.5348    1.0000 </r>
       <r>   -1.5968    0.0000 </r>
       <r>   -1.1821    0.0000 </r>
       <r>    0.0445    0.0000 </r>
       <r>    0.4771    0.0000 </r>
       <r>    2.8751    0.0000 </r>
      </set>
      <set comment="kpoint 18">
       <r>  -16.0826    1.0000 </r>
       <r>  -15.7908    1.0000 </r>
       <r>   -9.4168    1.0000 </r>
       <r>   -8.4420    1.0000 </r>
       <r>   -7.7792    1.0000 </r>
       <r>   -6.8782    1.0000 </r>
       <r>   -5.5662    1.0000 </r>
       <r>   -4.7645    1.0000 </r>
       <r>   -4.4583    1.0000 </r>
       <r>   -1.5899    0.0000 </r>
       <r>   -1.1204    0.0000 </r>
       <r>    0.1111    0.0000 </r>
       <r>    0.5027    0.0000 </r>
       <r>    2.6373    0.0000 </r>
      </set>
      <set comment="kpoint 19">
       <r>  -16.0352    1.0000 </r>
       <r>  -15.7707    1.0000 </r>
       <r>   -9.4646    1.0000 </r>
       <r>   -8.4926    1.0000 </r>
       <r>   -7.8028    1.0000 </r>
       <r>   -6.9026    1.0000 </r>
       <r>   -5.5841    1.0000 </r>
       <r>   -4.7334    1.0000 </r>
       <r>   -4.4042    1.0000 </r>
       <r>   -1.5837    0.0000 </r>
       <r>   -1.0784    0.0000 </r>
       <r>    0.1507    0.0000 </r>
       <r>    0.5178    0.0000 </r>
       <r>    2.4818    0.0000 </r>
      </set>
      <set comment="kpoint 20">
       <r>  -16.0191    1.0000 </r>
       <r>  -15.7639    1.0000 </r>
       <r>   -9.4810    1.0000 </r>
       <r>   -8.5097    1.0000 </r>
       <r>   -7.8112    1.0000 </r>
       <r>   -6.9107    1.0000 </r>
       <r>   -5.5901    1.0000 </r>
       <r>   -4.7231    1.0000 </r>
       <r>   -4.3847    1.0000 </r>
       <r>   -1.5813    0.0000 </r>
       <r>   -1.0634    0.0000 </r>
       <r>    0.1638    0.0000 </r>
       <r>    0.5227    0.0000 </r>
       <r>    2.4276    0.0000 </r>
      </set>
      <set comment="kpoint 21">
       <r>  -16.0191    1.0000 </r>
       <r>  -15.7639    1.0000 </r>
       <r>   -9.4810    1.0000 </r>
       <r>   -8.5097    1.0000 </r>
       <r>   -7.8112    1.0000 </r>
       <r>   -6.9107    1.0000 </r>
       <r>   -5.5901    1.0000 </r>
       <r>   -4.7231    1.0000 </r>
       <r>   -4.3847    1.0000 </r>
       <r>   -1.5813    0.0000 </r>
       <r>   -1.0634    0.0000 </r>
       <r>    0.1638    0.0000 </r>
       <r>    0.5227    0.0000 </r>
       <r>    2.4276    0.0000 </r>
      </set>
      <set comment="kpoint 22">
       <r>  -16.0177    1.0000 </r>
       <r>  -15.7629    1.0000 </r>
       <r>   -9.4765    1.0000 </r>
       <r>   -8.5133    1.0000 </r>
       <r>   -7.8096    1.0000 </r>
       <r>   -6.9115    1.0000 </r>
       <r>   -5.5892    1.0000 </r>
       <r>   -4.7573    1.0000 </r>
       <r>   -4.3662    1.0000 </r>
       <r>   -1.5792    0.0000 </r>
       <r>   -1.0620    0.0000 </r>
       <r>    0.1694    0.0000 </r>
       <r>    0.5090    0.0000 </r>
       <r>    2.4334    0.0000 </r>
      </set>
      <set comment="kpoint 23">
       <r>  -16.0134    1.0000 </r>
       <r>  -15.7600    1.0000 </r>
       <r>   -9.4630    1.0000 </r>
       <r>   -8.5240    1.0000 </r>
       <r>   -7.8050    1.0000 </r>
       <r>   -6.9134    1.0000 </r>
       <r>   -5.5867    1.0000 </r>
       <r>   -4.8444    1.0000 </r>
       <r>   -4.3255    1.0000 </r>
       <r>   -1.5736    0.0000 </r>
       <r>   -1.0573    0.0000 </r>
       <r>    0.1857    0.0000 </r>
       <r>    0.4697    0.0000 </r>
       <r>    2.4503    0.0000 </r>
      </set>
      <set comment="kpoint 24">
       <r>  -16.0064    1.0000 </r>
       <r>  -15.7551    1.0000 </r>
       <r>   -9.4407    1.0000 </r>
       <r>   -8.5417    1.0000 </r>
       <r>   -7.7975    1.0000 </r>
       <r>   -6.9159    1.0000 </r>
       <r>   -5.5833    1.0000 </r>
       <r>   -4.9641    1.0000 </r>
       <r>   -4.2810    1.0000 </r>
       <r>   -1.5666    0.0000 </r>
       <r>   -1.0480    0.0000 </r>
       <r>    0.2089    0.0000 </r>
       <r>    0.4117    0.0000 </r>
       <r>    2.4775    0.0000 </r>
      </set>
      <set comment="kpoint 25">
       <r>  -15.9968    1.0000 </r>
       <r>  -15.7485    1.0000 </r>
       <r>   -9.4095    1.0000 </r>
       <r>   -8.5662    1.0000 </r>
       <r>   -7.7872    1.0000 </r>
       <r>   -6.9179    1.0000 </r>
       <r>   -5.5800    1.0000 </r>
       <r>   -5.1058    1.0000 </r>
       <r>   -4.2402    1.0000 </r>
       <r>   -1.5613    0.0000 </r>
       <r>   -1.0320    0.0000 </r>
       <r>    0.2227    0.0000 </r>
       <r>    0.3558    0.0000 </r>
       <r>    2.5141    0.0000 </r>
      </set>
      <set comment="kpoint 26">
       <r>  -15.9847    1.0000 </r>
       <r>  -15.7402    1.0000 </r>
       <r>   -9.3699    1.0000 </r>
       <r>   -8.5971    1.0000 </r>
       <r>   -7.7744    1.0000 </r>
       <r>   -6.9182    1.0000 </r>
       <r>   -5.5778    1.0000 </r>
       <r>   -5.2641    1.0000 </r>
       <r>   -4.2044    1.0000 </r>
       <r>   -1.5613    0.0000 </r>
       <r>   -1.0073    0.0000 </r>
       <r>    0.1781    0.0000 </r>
       <r>    0.3554    0.0000 </r>
       <r>    2.5586    0.0000 </r>
      </set>
      <set comment="kpoint 27">
       <r>  -15.9704    1.0000 </r>
       <r>  -15.7305    1.0000 </r>
       <r>   -9.3218    1.0000 </r>
       <r>   -8.6339    1.0000 </r>
       <r>   -7.7595    1.0000 </r>
       <r>   -6.9156    1.0000 </r>
       <r>   -5.5779    1.0000 </r>
       <r>   -5.4356    1.0000 </r>
       <r>   -4.1728    1.0000 </r>
       <r>   -1.5697    0.0000 </r>
       <r>   -0.9721    0.0000 </r>
       <r>    0.0877    0.0000 </r>
       <r>    0.4020    0.0000 </r>
       <r>    2.6099    0.0000 </r>
      </set>
      <set comment="kpoint 28">
       <r>  -15.9541    1.0000 </r>
       <r>  -15.7194    1.0000 </r>
       <r>   -9.2658    1.0000 </r>
       <r>   -8.6757    1.0000 </r>
       <r>   -7.7429    1.0000 </r>
       <r>   -6.9093    1.0000 </r>
       <r>   -5.6171    1.0000 </r>
       <r>   -5.5815    1.0000 </r>
       <r>   -4.1440    1.0000 </r>
       <r>   -1.5882    0.0000 </r>
       <r>   -0.9261    0.0000 </r>
       <r>   -0.0146    0.0000 </r>
       <r>    0.4646    0.0000 </r>
       <r>    2.6671    0.0000 </r>
      </set>
      <set comment="kpoint 29">
       <r>  -15.9362    1.0000 </r>
       <r>  -15.7073    1.0000 </r>
       <r>   -9.2020    1.0000 </r>
       <r>   -8.7215    1.0000 </r>
       <r>   -7.7250    1.0000 </r>
       <r>   -6.8984    1.0000 </r>
       <r>   -5.8060    1.0000 </r>
       <r>   -5.5895    1.0000 </r>
       <r>   -4.1161    1.0000 </r>
       <r>   -1.6172    0.0000 </r>
       <r>   -0.8703    0.0000 </r>
       <r>   -0.1180    0.0000 </r>
       <r>    0.5347    0.0000 </r>
       <r>    2.7292    0.0000 </r>
      </set>
      <set comment="kpoint 30">
       <r>  -15.9171    1.0000 </r>
       <r>  -15.6945    1.0000 </r>
       <r>   -9.1309    1.0000 </r>
       <r>   -8.7702    1.0000 </r>
       <r>   -7.7066    1.0000 </r>
       <r>   -6.8827    1.0000 </r>
       <r>   -5.9994    1.0000 </r>
       <r>   -5.6027    1.0000 </r>
       <r>   -4.0878    1.0000 </r>
       <r>   -1.6560    0.0000 </r>
       <r>   -0.8065    0.0000 </r>
       <r>   -0.2180    0.0000 </r>
       <r>    0.6086    0.0000 </r>
       <r>    2.7958    0.0000 </r>
      </set>
      <set comment="kpoint 31">
       <r>  -15.8971    1.0000 </r>
       <r>  -15.6811    1.0000 </r>
       <r>   -9.0531    1.0000 </r>
       <r>   -8.8203    1.0000 </r>
       <r>   -7.6882    1.0000 </r>
       <r>   -6.8621    1.0000 </r>
       <r>   -6.1947    1.0000 </r>
       <r>   -5.6213    1.0000 </r>
       <r>   -4.0576    1.0000 </r>
       <r>   -1.7032    0.0000 </r>
       <r>   -0.7368    0.0000 </r>
       <r>   -0.3113    0.0000 </r>
       <r>    0.6836    0.0000 </r>
       <r>    2.8663    0.0000 </r>
      </set>
      <set comment="kpoint 32">
       <r>  -15.8768    1.0000 </r>
       <r>  -15.6677    1.0000 </r>
       <r>   -8.9689    1.0000 </r>
       <r>   -8.8706    1.0000 </r>
       <r>   -7.6707    1.0000 </r>
       <r>   -6.8368    1.0000 </r>
       <r>   -6.3891    1.0000 </r>
       <r>   -5.6455    1.0000 </r>
       <r>   -4.0247    1.0000 </r>
       <r>   -1.7572    0.0000 </r>
       <r>   -0.6639    0.0000 </r>
       <r>   -0.3959    0.0000 </r>
       <r>    0.7573    0.0000 </r>
       <r>    2.9404    0.0000 </r>
      </set>
      <set comment="kpoint 33">
       <r>  -15.8566    1.0000 </r>
       <r>  -15.6544    1.0000 </r>
       <r>   -8.9196    1.0000 </r>
       <r>   -8.8792    1.0000 </r>
       <r>   -7.6553    1.0000 </r>
       <r>   -6.8074    1.0000 </r>
       <r>   -6.5794    1.0000 </r>
       <r>   -5.6749    1.0000 </r>
       <r>   -3.9888    1.0000 </r>
       <r>   -1.8159    0.0000 </r>
       <r>   -0.5898    0.0000 </r>
       <r>   -0.4705    0.0000 </r>
       <r>    0.8273    0.0000 </r>
       <r>    3.0176    0.0000 </r>
      </set>
      <set comment="kpoint 34">
       <r>  -15.8371    1.0000 </r>
       <r>  -15.6418    1.0000 </r>
       <r>   -8.9658    1.0000 </r>
       <r>   -8.7848    1.0000 </r>
       <r>   -7.6439    1.0000 </r>
       <r>   -6.7748    1.0000 </r>
       <r>   -6.7620    1.0000 </r>
       <r>   -5.7085    1.0000 </r>
       <r>   -3.9503    1.0000 </r>
       <r>   -1.8773    0.0000 </r>
       <r>   -0.5341    0.0000 </r>
       <r>   -0.5172    0.0000 </r>
       <r>    0.8918    0.0000 </r>
       <r>    3.0974    0.0000 </r>
      </set>
      <set comment="kpoint 35">
       <r>  -15.8189    1.0000 </r>
       <r>  -15.6301    1.0000 </r>
       <r>   -9.0079    1.0000 </r>
       <r>   -8.6869    1.0000 </r>
       <r>   -7.6394    1.0000 </r>
       <r>   -6.9315    1.0000 </r>
       <r>   -6.7403    1.0000 </r>
       <r>   -5.7452    1.0000 </r>
       <r>   -3.9101    1.0000 </r>
       <r>   -1.9387    0.0000 </r>
       <r>   -0.5864    0.0000 </r>
       <r>   -0.4484    0.0000 </r>
       <r>    0.9488    0.0000 </r>
       <r>    3.1790    0.0000 </r>
      </set>
      <set comment="kpoint 36">
       <r>  -15.8025    1.0000 </r>
       <r>  -15.6197    1.0000 </r>
       <r>   -9.0447    1.0000 </r>
       <r>   -8.5873    1.0000 </r>
       <r>   -7.6471    1.0000 </r>
       <r>   -7.0800    1.0000 </r>
       <r>   -6.7055    1.0000 </r>
       <r>   -5.7828    1.0000 </r>
       <r>   -3.8700    1.0000 </r>
       <r>   -1.9972    0.0000 </r>
       <r>   -0.6275    0.0000 </r>
       <r>   -0.3859    0.0000 </r>
       <r>    0.9968    0.0000 </r>
       <r>    3.2608    0.0000 </r>
      </set>
      <set comment="kpoint 37">
       <r>  -15.7887    1.0000 </r>
       <r>  -15.6111    1.0000 </r>
       <r>   -9.0749    1.0000 </r>
       <r>   -8.4889    1.0000 </r>
       <r>   -7.6744    1.0000 </r>
       <r>   -7.1963    1.0000 </r>
       <r>   -6.6729    1.0000 </r>
       <r>   -5.8187    1.0000 </r>
       <r>   -3.8326    1.0000 </r>
       <r>   -2.0493    0.0000 </r>
       <r>   -0.6578    0.0000 </r>
       <r>   -0.3325    0.0000 </r>
       <r>    1.0347    0.0000 </r>
       <r>    3.3403    0.0000 </r>
      </set>
      <set comment="kpoint 38">
       <r>  -15.7780    1.0000 </r>
       <r>  -15.6046    1.0000 </r>
       <r>   -9.0975    1.0000 </r>
       <r>   -8.3979    1.0000 </r>
       <r>   -7.7240    1.0000 </r>
       <r>   -7.2708    1.0000 </r>
       <r>   -6.6454    1.0000 </r>
       <r>   -5.8493    1.0000 </r>
       <r>   -3.8015    1.0000 </r>
       <r>   -2.0910    0.0000 </r>
       <r>   -0.6781    0.0000 </r>
       <r>   -0.2911    0.0000 </r>
       <r>    1.0618    0.0000 </r>
       <r>    3.4120    0.0000 </r>
      </set>
      <set comment="kpoint 39">
       <r>  -15.7711    1.0000 </r>
       <r>  -15.6004    1.0000 </r>
       <r>   -9.1117    1.0000 </r>
       <r>   -8.3267    1.0000 </r>
       <r>   -7.7797    1.0000 </r>
       <r>   -7.3065    1.0000 </r>
       <r>   -6.6266    1.0000 </r>
       <r>   -5.8705    1.0000 </r>
       <r>   -3.7803    1.0000 </r>
       <r>   -2.1185    0.0000 </r>
       <r>   -0.6893    0.0000 </r>
       <r>   -0.2643    0.0000 </r>
       <r>    1.0779    0.0000 </r>
       <r>    3.4650    0.0000 </r>
      </set>
      <set comment="kpoint 40">
       <r>  -15.7687    1.0000 </r>
       <r>  -15.5990    1.0000 </r>
       <r>   -9.1166    1.0000 </r>
       <r>   -8.2978    1.0000 </r>
       <r>   -7.8061    1.0000 </r>
       <r>   -7.3158    1.0000 </r>
       <r>   -6.6197    1.0000 </r>
       <r>   -5.8783    1.0000 </r>
       <r>   -3.7725    1.0000 </r>
       <r>   -2.1282    0.0000 </r>
       <r>   -0.6927    0.0000 </r>
       <r>   -0.2549    0.0000 </r>
       <r>    1.0832    0.0000 </r>
       <r>    3.4922    0.0000 </r>
      </set>
      <set comment="kpoint 41">
       <r>  -15.7687    1.0000 </r>
       <r>  -15.5990    1.0000 </r>
       <r>   -9.1166    1.0000 </r>
       <r>   -8.2978    1.0000 </r>
       <r>   -7.8061    1.0000 </r>
       <r>   -7.3158    1.0000 </r>
       <r>   -6.6197    1.0000 </r>
       <r>   -5.8783    1.0000 </r>
       <r>   -3.7725    1.0000 </r>
       <r>   -2.1282    0.0000 </r>
       <r>   -0.6927    0.0000 </r>
       <r>   -0.2549    0.0000 </r>
       <r>    1.0831    0.0000 </r>
       <r>    3.4843    0.0000 </r>
      </set>
      <set comment="kpoint 42">
       <r>  -15.7796    1.0000 </r>
       <r>  -15.6052    1.0000 </r>
       <r>   -9.0959    1.0000 </r>
       <r>   -8.3943    1.0000 </r>
       <r>   -7.7067    1.0000 </r>
       <r>   -7.2908    1.0000 </r>
       <r>   -6.6480    1.0000 </r>
       <r>   -5.8450    1.0000 </r>
       <r>   -3.8058    1.0000 </r>
       <r>   -2.0881    0.0000 </r>
       <r>   -0.6822    0.0000 </r>
       <r>   -0.2955    0.0000 </r>
       <r>    1.0640    0.0000 </r>
       <r>    3.4478    0.0000 </r>
      </set>
      <set comment="kpoint 43">
       <r>  -15.8145    1.0000 </r>
       <r>  -15.6245    1.0000 </r>
       <r>   -9.0323    1.0000 </r>
       <r>   -8.5591    1.0000 </r>
       <r>   -7.5322    1.0000 </r>
       <r>   -7.2169    1.0000 </r>
       <r>   -6.7209    1.0000 </r>
       <r>   -5.7539    1.0000 </r>
       <r>   -3.8991    1.0000 </r>
       <r>   -1.9790    0.0000 </r>
       <r>   -0.6602    0.0000 </r>
       <r>   -0.4169    0.0000 </r>
       <r>    1.0139    0.0000 </r>
       <r>    3.4421    0.0000 </r>
      </set>
      <set comment="kpoint 44">
       <r>  -15.8762    1.0000 </r>
       <r>  -15.6574    1.0000 </r>
       <r>   -8.9244    1.0000 </r>
       <r>   -8.7011    1.0000 </r>
       <r>   -7.4101    1.0000 </r>
       <r>   -7.0617    1.0000 </r>
       <r>   -6.8129    1.0000 </r>
       <r>   -5.6267    1.0000 </r>
       <r>   -4.0297    1.0000 </r>
       <r>   -1.8334    0.0000 </r>
       <r>   -0.6419    0.0000 </r>
       <r>   -0.6046    0.0000 </r>
       <r>    0.9457    0.0000 </r>
       <r>    3.5167    0.0000 </r>
      </set>
      <set comment="kpoint 45">
       <r>  -15.9652    1.0000 </r>
       <r>  -15.7033    1.0000 </r>
       <r>   -8.7979    1.0000 </r>
       <r>   -8.7730    1.0000 </r>
       <r>   -7.3594    1.0000 </r>
       <r>   -6.9028    1.0000 </r>
       <r>   -6.8368    1.0000 </r>
       <r>   -5.4819    1.0000 </r>
       <r>   -4.1708    1.0000 </r>
       <r>   -1.6908    0.0000 </r>
       <r>   -0.8286    0.0000 </r>
       <r>   -0.6424    0.0000 </r>
       <r>    0.8725    0.0000 </r>
       <r>    3.6602    0.0000 </r>
      </set>
      <set comment="kpoint 46">
       <r>  -16.0802    1.0000 </r>
       <r>  -15.7608    1.0000 </r>
       <r>   -8.8453    1.0000 </r>
       <r>   -8.5805    1.0000 </r>
       <r>   -7.3505    1.0000 </r>
       <r>   -6.9769    1.0000 </r>
       <r>   -6.5893    1.0000 </r>
       <r>   -5.3319    1.0000 </r>
       <r>   -4.3024    1.0000 </r>
       <r>   -1.5906    0.0000 </r>
       <r>   -1.0468    0.0000 </r>
       <r>   -0.6723    0.0000 </r>
       <r>    0.8026    0.0000 </r>
       <r>    3.8414    0.0000 </r>
      </set>
      <set comment="kpoint 47">
       <r>  -16.2178    1.0000 </r>
       <r>  -15.8281    1.0000 </r>
       <r>   -8.8463    1.0000 </r>
       <r>   -8.3516    1.0000 </r>
       <r>   -7.3728    1.0000 </r>
       <r>   -7.0266    1.0000 </r>
       <r>   -6.3427    1.0000 </r>
       <r>   -5.1851    1.0000 </r>
       <r>   -4.4122    1.0000 </r>
       <r>   -1.5809    0.0000 </r>
       <r>   -1.1979    0.0000 </r>
       <r>   -0.7348    0.0000 </r>
       <r>    0.7358    0.0000 </r>
       <r>    3.9842    0.0000 </r>
      </set>
      <set comment="kpoint 48">
       <r>  -16.3731    1.0000 </r>
       <r>  -15.9027    1.0000 </r>
       <r>   -8.8092    1.0000 </r>
       <r>   -8.0924    1.0000 </r>
       <r>   -7.4214    1.0000 </r>
       <r>   -7.0453    1.0000 </r>
       <r>   -6.1109    1.0000 </r>
       <r>   -5.0481    1.0000 </r>
       <r>   -4.4952    1.0000 </r>
       <r>   -1.6687    0.0000 </r>
       <r>   -1.2528    0.0000 </r>
       <r>   -0.8241    0.0000 </r>
       <r>    0.6638    0.0000 </r>
       <r>    3.9169    0.0000 </r>
      </set>
      <set comment="kpoint 49">
       <r>  -16.5405    1.0000 </r>
       <r>  -15.9821    1.0000 </r>
       <r>   -8.7481    1.0000 </r>
       <r>   -7.8119    1.0000 </r>
       <r>   -7.4849    1.0000 </r>
       <r>   -7.0269    1.0000 </r>
       <r>   -5.9102    1.0000 </r>
       <r>   -4.9262    1.0000 </r>
       <r>   -4.5475    1.0000 </r>
       <r>   -1.7641    0.0000 </r>
       <r>   -1.2746    0.0000 </r>
       <r>   -0.9293    0.0000 </r>
       <r>    0.5750    0.0000 </r>
       <r>    3.6698    0.0000 </r>
      </set>
      <set comment="kpoint 50">
       <r>  -16.7141    1.0000 </r>
       <r>  -16.0639    1.0000 </r>
       <r>   -8.6854    1.0000 </r>
       <r>   -7.5408    1.0000 </r>
       <r>   -7.5243    1.0000 </r>
       <r>   -6.9631    1.0000 </r>
       <r>   -5.7654    1.0000 </r>
       <r>   -4.8236    1.0000 </r>
       <r>   -4.5575    1.0000 </r>
       <r>   -1.8097    0.0000 </r>
       <r>   -1.2964    0.0000 </r>
       <r>   -1.0377    0.0000 </r>
       <r>    0.4601    0.0000 </r>
       <r>    3.3846    0.0000 </r>
      </set>
      <set comment="kpoint 51">
       <r>  -16.8882    1.0000 </r>
       <r>  -16.1456    1.0000 </r>
       <r>   -8.6520    1.0000 </r>
       <r>   -7.5558    1.0000 </r>
       <r>   -7.2543    1.0000 </r>
       <r>   -6.8375    1.0000 </r>
       <r>   -5.7033    1.0000 </r>
       <r>   -4.7437    1.0000 </r>
       <r>   -4.5074    1.0000 </r>
       <r>   -1.7954    0.0000 </r>
       <r>   -1.3134    0.0000 </r>
       <r>   -1.1375    0.0000 </r>
       <r>    0.3160    0.0000 </r>
       <r>    3.1745    0.0000 </r>
      </set>
      <set comment="kpoint 52">
       <r>  -17.0574    1.0000 </r>
       <r>  -16.2250    1.0000 </r>
       <r>   -8.6737    1.0000 </r>
       <r>   -7.5015    1.0000 </r>
       <r>   -7.0295    1.0000 </r>
       <r>   -6.6328    1.0000 </r>
       <r>   -5.7281    1.0000 </r>
       <r>   -4.6891    1.0000 </r>
       <r>   -4.3962    1.0000 </r>
       <r>   -1.7321    0.0000 </r>
       <r>   -1.3102    0.0000 </r>
       <r>   -1.2186    0.0000 </r>
       <r>    0.1456    0.0000 </r>
       <r>    2.8532    0.0000 </r>
      </set>
      <set comment="kpoint 53">
       <r>  -17.2172    1.0000 </r>
       <r>  -16.3000    1.0000 </r>
       <r>   -8.7502    1.0000 </r>
       <r>   -7.3768    1.0000 </r>
       <r>   -6.8398    1.0000 </r>
       <r>   -6.3723    1.0000 </r>
       <r>   -5.8139    1.0000 </r>
       <r>   -4.6618    1.0000 </r>
       <r>   -4.2507    1.0000 </r>
       <r>   -1.6372    0.0000 </r>
       <r>   -1.2723    0.0000 </r>
       <r>   -1.2722    0.0000 </r>
       <r>   -0.0438    0.0000 </r>
       <r>    2.5987    0.0000 </r>
      </set>
      <set comment="kpoint 54">
       <r>  -17.3635    1.0000 </r>
       <r>  -16.3687    1.0000 </r>
       <r>   -8.8597    1.0000 </r>
       <r>   -7.2043    1.0000 </r>
       <r>   -6.6538    1.0000 </r>
       <r>   -6.1020    1.0000 </r>
       <r>   -5.9287    1.0000 </r>
       <r>   -4.6637    1.0000 </r>
       <r>   -4.1032    1.0000 </r>
       <r>   -1.5219    0.0000 </r>
       <r>   -1.2922    0.0000 </r>
       <r>   -1.1954    0.0000 </r>
       <r>   -0.2415    0.0000 </r>
       <r>    2.3847    0.0000 </r>
      </set>
      <set comment="kpoint 55">
       <r>  -17.4929    1.0000 </r>
       <r>  -16.4296    1.0000 </r>
       <r>   -8.9792    1.0000 </r>
       <r>   -7.0101    1.0000 </r>
       <r>   -6.4573    1.0000 </r>
       <r>   -6.0491    1.0000 </r>
       <r>   -5.8519    1.0000 </r>
       <r>   -4.6966    1.0000 </r>
       <r>   -3.9762    1.0000 </r>
       <r>   -1.3858    0.0000 </r>
       <r>   -1.2753    0.0000 </r>
       <r>   -1.0927    0.0000 </r>
       <r>   -0.4361    0.0000 </r>
       <r>    2.1877    0.0000 </r>
      </set>
      <set comment="kpoint 56">
       <r>  -17.6025    1.0000 </r>
       <r>  -16.4812    1.0000 </r>
       <r>   -9.0928    1.0000 </r>
       <r>   -6.8159    1.0000 </r>
       <r>   -6.2481    1.0000 </r>
       <r>   -6.1602    1.0000 </r>
       <r>   -5.6386    1.0000 </r>
       <r>   -4.7622    1.0000 </r>
       <r>   -3.8799    1.0000 </r>
       <r>   -1.2283    0.0000 </r>
       <r>   -1.2239    0.0000 </r>
       <r>   -0.9840    0.0000 </r>
       <r>   -0.6153    0.0000 </r>
       <r>    2.0228    0.0000 </r>
      </set>
      <set comment="kpoint 57">
       <r>  -17.6900    1.0000 </r>
       <r>  -16.5226    1.0000 </r>
       <r>   -9.1899    1.0000 </r>
       <r>   -6.6408    1.0000 </r>
       <r>   -6.2531    1.0000 </r>
       <r>   -6.0299    1.0000 </r>
       <r>   -5.4710    1.0000 </r>
       <r>   -4.8612    1.0000 </r>
       <r>   -3.8147    1.0000 </r>
       <r>   -1.1485    0.0000 </r>
       <r>   -1.0596    0.0000 </r>
       <r>   -0.8863    0.0000 </r>
       <r>   -0.7680    0.0000 </r>
       <r>    1.8914    0.0000 </r>
      </set>
      <set comment="kpoint 58">
       <r>  -17.7538    1.0000 </r>
       <r>  -16.5527    1.0000 </r>
       <r>   -9.2635    1.0000 </r>
       <r>   -6.5011    1.0000 </r>
       <r>   -6.3226    1.0000 </r>
       <r>   -5.8095    1.0000 </r>
       <r>   -5.3524    1.0000 </r>
       <r>   -4.9920    1.0000 </r>
       <r>   -3.7750    1.0000 </r>
       <r>   -1.0678    0.0000 </r>
       <r>   -0.9029    0.0000 </r>
       <r>   -0.8844    0.0000 </r>
       <r>   -0.8105    0.0000 </r>
       <r>    1.7701    0.0000 </r>
      </set>
      <set comment="kpoint 59">
       <r>  -17.7926    1.0000 </r>
       <r>  -16.5710    1.0000 </r>
       <r>   -9.3093    1.0000 </r>
       <r>   -6.4109    1.0000 </r>
       <r>   -6.3653    1.0000 </r>
       <r>   -5.5996    1.0000 </r>
       <r>   -5.2824    1.0000 </r>
       <r>   -5.1462    1.0000 </r>
       <r>   -3.7545    1.0000 </r>
       <r>   -1.0053    0.0000 </r>
       <r>   -0.9572    0.0000 </r>
       <r>   -0.7888    0.0000 </r>
       <r>   -0.7630    0.0000 </r>
       <r>    1.7037    0.0000 </r>
      </set>
      <set comment="kpoint 60">
       <r>  -17.8056    1.0000 </r>
       <r>  -16.5772    1.0000 </r>
       <r>   -9.3248    1.0000 </r>
       <r>   -6.3797    1.0000 </r>
       <r>   -6.3797    1.0000 </r>
       <r>   -5.4675    1.0000 </r>
       <r>   -5.2594    1.0000 </r>
       <r>   -5.2593    1.0000 </r>
       <r>   -3.7482    1.0000 </r>
       <r>   -0.9819    0.0000 </r>
       <r>   -0.9819    0.0000 </r>
       <r>   -0.7468    0.0000 </r>
       <r>   -0.7468    0.0000 </r>
       <r>    1.6665    0.0000 </r>
      </set>
      <set comment="kpoint 61">
       <r>  -17.8056    1.0000 </r>
       <r>  -16.5772    1.0000 </r>
       <r>   -9.3248    1.0000 </r>
       <r>   -6.3797    1.0000 </r>
       <r>   -6.3797    1.0000 </r>
       <r>   -5.4675    1.0000 </r>
       <r>   -5.2594    1.0000 </r>
       <r>   -5.2593    1.0000 </r>
       <r>   -3.7482    1.0000 </r>
       <r>   -0.9819    0.0000 </r>
       <r>   -0.9819    0.0000 </r>
       <r>   -0.7468    0.0000 </r>
       <r>   -0.7466    0.0000 </r>
       <r>    1.6933    0.0000 </r>
      </set>
      <set comment="kpoint 62">
       <r>  -17.8056    1.0000 </r>
       <r>  -16.5772    1.0000 </r>
       <r>   -9.3248    1.0000 </r>
       <r>   -6.3797    1.0000 </r>
       <r>   -6.3797    1.0000 </r>
       <r>   -5.4675    1.0000 </r>
       <r>   -5.2594    1.0000 </r>
       <r>   -5.2593    1.0000 </r>
       <r>   -3.7482    1.0000 </r>
       <r>   -0.9819    0.0000 </r>
       <r>   -0.9819    0.0000 </r>
       <r>   -0.7468    0.0000 </r>
       <r>   -0.7468    0.0000 </r>
       <r>    1.6669    0.0000 </r>
      </set>
      <set comment="kpoint 63">
       <r>  -17.8056    1.0000 </r>
       <r>  -16.5772    1.0000 </r>
       <r>   -9.3248    1.0000 </r>
       <r>   -6.3797    1.0000 </r>
       <r>   -6.3797    1.0000 </r>
       <r>   -5.4675    1.0000 </r>
       <r>   -5.2594    1.0000 </r>
       <r>   -5.2593    1.0000 </r>
       <r>   -3.7482    1.0000 </r>
       <r>   -0.9819    0.0000 </r>
       <r>   -0.8606    0.0000 </r>
       <r>   -0.7468    0.0000 </r>
       <r>    1.6224    0.0000 </r>
       <r>    1.8191    0.0000 </r>
      </set>
      <set comment="kpoint 64">
       <r>  -17.8056    1.0000 </r>
       <r>  -16.5772    1.0000 </r>
       <r>   -9.3248    1.0000 </r>
       <r>   -6.3797    1.0000 </r>
       <r>   -6.3797    1.0000 </r>
       <r>   -5.4675    1.0000 </r>
       <r>   -5.2594    1.0000 </r>
       <r>   -5.2593    1.0000 </r>
       <r>   -3.7482    1.0000 </r>
       <r>   -0.9819    0.0000 </r>
       <r>   -0.9818    0.0000 </r>
       <r>   -0.7468    0.0000 </r>
       <r>   -0.7465    0.0000 </r>
       <r>    1.6851    0.0000 </r>
      </set>
      <set comment="kpoint 65">
       <r>  -17.8056    1.0000 </r>
       <r>  -16.5772    1.0000 </r>
       <r>   -9.3248    1.0000 </r>
       <r>   -6.3797    1.0000 </r>
       <r>   -6.3797    1.0000 </r>
       <r>   -5.4675    1.0000 </r>
       <r>   -5.2594    1.0000 </r>
       <r>   -5.2593    1.0000 </r>
       <r>   -3.7482    1.0000 </r>
       <r>   -0.9819    0.0000 </r>
       <r>   -0.9819    0.0000 </r>
       <r>   -0.7468    0.0000 </r>
       <r>   -0.7466    0.0000 </r>
       <r>    1.6667    0.0000 </r>
      </set>
      <set comment="kpoint 66">
       <r>  -17.8056    1.0000 </r>
       <r>  -16.5772    1.0000 </r>
       <r>   -9.3248    1.0000 </r>
       <r>   -6.3797    1.0000 </r>
       <r>   -6.3797    1.0000 </r>
       <r>   -5.4675    1.0000 </r>
       <r>   -5.2594    1.0000 </r>
       <r>   -5.2593    1.0000 </r>
       <r>   -3.7482    1.0000 </r>
       <r>   -0.9819    0.0000 </r>
       <r>   -0.9817    0.0000 </r>
       <r>   -0.7468    0.0000 </r>
       <r>   -0.7464    0.0000 </r>
       <r>    1.6700    0.0000 </r>
      </set>
      <set comment="kpoint 67">
       <r>  -17.8056    1.0000 </r>
       <r>  -16.5772    1.0000 </r>
       <r>   -9.3248    1.0000 </r>
       <r>   -6.3797    1.0000 </r>
       <r>   -6.3797    1.0000 </r>
       <r>   -5.4675    1.0000 </r>
       <r>   -5.2594    1.0000 </r>
       <r>   -5.2593    1.0000 </r>
       <r>   -3.7482    1.0000 </r>
       <r>   -0.9819    0.0000 </r>
       <r>   -0.9819    0.0000 </r>
       <r>   -0.7468    0.0000 </r>
       <r>   -0.7464    0.0000 </r>
       <r>    1.6669    0.0000 </r>
      </set>
      <set comment="kpoint 68">
       <r>  -17.8056    1.0000 </r>
       <r>  -16.5772    1.0000 </r>
       <r>   -9.3248    1.0000 </r>
       <r>   -6.3797    1.0000 </r>
       <r>   -6.3797    1.0000 </r>
       <r>   -5.4675    1.0000 </r>
       <r>   -5.2594    1.0000 </r>
       <r>   -5.2593    1.0000 </r>
       <r>   -3.7482    1.0000 </r>
       <r>   -0.9819    0.0000 </r>
       <r>   -0.9819    0.0000 </r>
       <r>   -0.7468    0.0000 </r>
       <r>   -0.7468    0.0000 </r>
       <r>    1.6703    0.0000 </r>
      </set>
      <set comment="kpoint 69">
       <r>  -17.8056    1.0000 </r>
       <r>  -16.5772    1.0000 </r>
       <r>   -9.3248    1.0000 </r>
       <r>   -6.3797    1.0000 </r>
       <r>   -6.3797    1.0000 </r>
       <r>   -5.4675    1.0000 </r>
       <r>   -5.2594    1.0000 </r>
       <r>   -5.2593    1.0000 </r>
       <r>   -3.7482    1.0000 </r>
       <r>   -0.9819    0.0000 </r>
       <r>   -0.9818    0.0000 </r>
       <r>   -0.7468    0.0000 </r>
       <r>   -0.7463    0.0000 </r>
       <r>    1.6734    0.0000 </r>
      </set>
      <set comment="kpoint 70">
       <r>  -17.8056    1.0000 </r>
       <r>  -16.5772    1.0000 </r>
       <r>   -9.3248    1.0000 </r>
       <r>   -6.3797    1.0000 </r>
       <r>   -6.3797    1.0000 </r>
       <r>   -5.4675    1.0000 </r>
       <r>   -5.2594    1.0000 </r>
       <r>   -5.2593    1.0000 </r>
       <r>   -3.7482    1.0000 </r>
       <r>   -0.9819    0.0000 </r>
       <r>   -0.9819    0.0000 </r>
       <r>   -0.7468    0.0000 </r>
       <r>   -0.7468    0.0000 </r>
       <r>    1.6712    0.0000 </r>
      </set>
      <set comment="kpoint 71">
       <r>  -17.8056    1.0000 </r>
       <r>  -16.5772    1.0000 </r>
       <r>   -9.3248    1.0000 </r>
       <r>   -6.3797    1.0000 </r>
       <r>   -6.3797    1.0000 </r>
       <r>   -5.4675    1.0000 </r>
       <r>   -5.2594    1.0000 </r>
       <r>   -5.2593    1.0000 </r>
       <r>   -3.7482    1.0000 </r>
       <r>   -0.9819    0.0000 </r>
       <r>   -0.9819    0.0000 </r>
       <r>   -0.7468    0.0000 </r>
       <r>   -0.7468    0.0000 </r>
       <r>    1.6679    0.0000 </r>
      </set>
      <set comment="kpoint 72">
       <r>  -17.8056    1.0000 </r>
       <r>  -16.5772    1.0000 </r>
       <r>   -9.3248    1.0000 </r>
       <r>   -6.3797    1.0000 </r>
       <r>   -6.3797    1.0000 </r>
       <r>   -5.4675    1.0000 </r>
       <r>   -5.2594    1.0000 </r>
       <r>   -5.2593    1.0000 </r>
       <r>   -3.7482    1.0000 </r>
       <r>   -0.9819    0.0000 </r>
       <r>   -0.9811    0.0000 </r>
       <r>   -0.7468    0.0000 </r>
       <r>   -0.7469    0.0000 </r>
       <r>    1.6672    0.0000 </r>
      </set>
      <set comment="kpoint 73">
       <r>  -17.8056    1.0000 </r>
       <r>  -16.5772    1.0000 </r>
       <r>   -9.3248    1.0000 </r>
       <r>   -6.3797    1.0000 </r>
       <r>   -6.3797    1.0000 </r>
       <r>   -5.4675    1.0000 </r>
       <r>   -5.2594    1.0000 </r>
       <r>   -5.2593    1.0000 </r>
       <r>   -3.7482    1.0000 </r>
       <r>   -0.9819    0.0000 </r>
       <r>   -0.9819    0.0000 </r>
       <r>   -0.7468    0.0000 </r>
       <r>   -0.7468    0.0000 </r>
       <r>    1.6732    0.0000 </r>
      </set>
      <set comment="kpoint 74">
       <r>  -17.8056    1.0000 </r>
       <r>  -16.5772    1.0000 </r>
       <r>   -9.3248    1.0000 </r>
       <r>   -6.3797    1.0000 </r>
       <r>   -6.3797    1.0000 </r>
       <r>   -5.4675    1.0000 </r>
       <r>   -5.2594    1.0000 </r>
       <r>   -5.2593    1.0000 </r>
       <r>   -3.7482    1.0000 </r>
       <r>   -0.9819    0.0000 </r>
       <r>   -0.9819    0.0000 </r>
       <r>   -0.7468    0.0000 </r>
       <r>   -0.7468    0.0000 </r>
       <r>    1.6675    0.0000 </r>
      </set>
      <set comment="kpoint 75">
       <r>  -17.8056    1.0000 </r>
       <r>  -16.5772    1.0000 </r>
       <r>   -9.3248    1.0000 </r>
       <r>   -6.3797    1.0000 </r>
       <r>   -6.3797    1.0000 </r>
       <r>   -5.4675    1.0000 </r>
       <r>   -5.2594    1.0000 </r>
       <r>   -5.2593    1.0000 </r>
       <r>   -3.7482    1.0000 </r>
       <r>   -0.9819    0.0000 </r>
       <r>   -0.9819    0.0000 </r>
       <r>   -0.7468    0.0000 </r>
       <r>   -0.7467    0.0000 </r>
       <r>    1.6683    0.0000 </r>
      </set>
      <set comment="kpoint 76">
       <r>  -17.8056    1.0000 </r>
       <r>  -16.5772    1.0000 </r>
       <r>   -9.3248    1.0000 </r>
       <r>   -6.3797    1.0000 </r>
       <r>   -6.3797    1.0000 </r>
       <r>   -5.4675    1.0000 </r>
       <r>   -5.2594    1.0000 </r>
       <r>   -5.2593    1.0000 </r>
       <r>   -3.7482    1.0000 </r>
       <r>   -0.9819    0.0000 </r>
       <r>   -0.9819    0.0000 </r>
       <r>   -0.7468    0.0000 </r>
       <r>   -0.7468    0.0000 </r>
       <r>    1.6675    0.0000 </r>
      </set>
      <set comment="kpoint 77">
       <r>  -17.8056    1.0000 </r>
       <r>  -16.5772    1.0000 </r>
       <r>   -9.3248    1.0000 </r>
       <r>   -6.3797    1.0000 </r>
       <r>   -6.3797    1.0000 </r>
       <r>   -5.4675    1.0000 </r>
       <r>   -5.2594    1.0000 </r>
       <r>   -5.2593    1.0000 </r>
       <r>   -3.7482    1.0000 </r>
       <r>   -0.9819    0.0000 </r>
       <r>   -0.9819    0.0000 </r>
       <r>   -0.7468    0.0000 </r>
       <r>   -0.7467    0.0000 </r>
       <r>    1.6678    0.0000 </r>
      </set>
      <set comment="kpoint 78">
       <r>  -17.8056    1.0000 </r>
       <r>  -16.5772    1.0000 </r>
       <r>   -9.3248    1.0000 </r>
       <r>   -6.3797    1.0000 </r>
       <r>   -6.3797    1.0000 </r>
       <r>   -5.4675    1.0000 </r>
       <r>   -5.2594    1.0000 </r>
       <r>   -5.2593    1.0000 </r>
       <r>   -3.7482    1.0000 </r>
       <r>   -0.9819    0.0000 </r>
       <r>   -0.9819    0.0000 </r>
       <r>   -0.7468    0.0000 </r>
       <r>   -0.7467    0.0000 </r>
       <r>    1.6675    0.0000 </r>
      </set>
      <set comment="kpoint 79">
       <r>  -17.8056    1.0000 </r>
       <r>  -16.5772    1.0000 </r>
       <r>   -9.3248    1.0000 </r>
       <r>   -6.3797    1.0000 </r>
       <r>   -6.3797    1.0000 </r>
       <r>   -5.4675    1.0000 </r>
       <r>   -5.2594    1.0000 </r>
       <r>   -5.2593    1.0000 </r>
       <r>   -3.7482    1.0000 </r>
       <r>   -0.9819    0.0000 </r>
       <r>   -0.9819    0.0000 </r>
       <r>   -0.7468    0.0000 </r>
       <r>   -0.7468    0.0000 </r>
       <r>    1.6684    0.0000 </r>
      </set>
      <set comment="kpoint 80">
       <r>  -17.8056    1.0000 </r>
       <r>  -16.5772    1.0000 </r>
       <r>   -9.3248    1.0000 </r>
       <r>   -6.3797    1.0000 </r>
       <r>   -6.3797    1.0000 </r>
       <r>   -5.4675    1.0000 </r>
       <r>   -5.2594    1.0000 </r>
       <r>   -5.2593    1.0000 </r>
       <r>   -3.7482    1.0000 </r>
       <r>   -0.9819    0.0000 </r>
       <r>   -0.9819    0.0000 </r>
       <r>   -0.7468    0.0000 </r>
       <r>   -0.7467    0.0000 </r>
       <r>    1.6676    0.0000 </r>
      </set>
      <set comment="kpoint 81">
       <r>  -17.8056    1.0000 </r>
       <r>  -16.5772    1.0000 </r>
       <r>   -9.3248    1.0000 </r>
       <r>   -6.3797    1.0000 </r>
       <r>   -6.3797    1.0000 </r>
       <r>   -5.4675    1.0000 </r>
       <r>   -5.2594    1.0000 </r>
       <r>   -5.2593    1.0000 </r>
       <r>   -3.7482    1.0000 </r>
       <r>   -0.9819    0.0000 </r>
       <r>   -0.9819    0.0000 </r>
       <r>   -0.7468    0.0000 </r>
       <r>   -0.7468    0.0000 </r>
       <r>    1.6698    0.0000 </r>
      </set>
      <set comment="kpoint 82">
       <r>  -17.7958    1.0000 </r>
       <r>  -16.5726    1.0000 </r>
       <r>   -9.3132    1.0000 </r>
       <r>   -6.4032    1.0000 </r>
       <r>   -6.3689    1.0000 </r>
       <r>   -5.5739    1.0000 </r>
       <r>   -5.2765    1.0000 </r>
       <r>   -5.1673    1.0000 </r>
       <r>   -3.7529    1.0000 </r>
[...]
        <r>  0.0097  0.1317  0.0054  0.0449  0.0000  0.0000  0.0000  0.0000  0.0000 </r>
        <r>  0.0074  0.1122  0.0046  0.0385  0.0000  0.0000  0.0000  0.0000  0.0000 </r>
       </set>
       <set comment="band 11">
        <r>  0.0000  0.0000  0.0003  0.0000  0.0002  0.2702  0.0001  0.1773  0.0005 </r>
        <r>  0.0156  0.0779  0.0032  0.0260  0.0000  0.0000  0.0000  0.0000  0.0000 </r>
        <r>  0.0179  0.0974  0.0040  0.0324  0.0000  0.0000  0.0000  0.0000  0.0000 </r>
       </set>
       <set comment="band 12">
        <r>  0.0011  0.0065  0.0000  0.0122  0.2532  0.0000  0.0055  0.0000  0.0845 </r>
        <r>  0.0000  0.0513  0.0003  0.1523  0.0000  0.0000  0.0000  0.0000  0.0000 </r>
        <r>  0.0000  0.0510  0.0003  0.1517  0.0000  0.0000  0.0000  0.0000  0.0000 </r>
       </set>
       <set comment="band 13">
        <r>  0.0000  0.0000  0.0007  0.0000  0.0000  0.1566  0.0000  0.2343  0.0000 </r>
        <r>  0.0004  0.0449  0.0012  0.1341  0.0000  0.0000  0.0000  0.0000  0.0000 </r>
        <r>  0.0004  0.0450  0.0012  0.1348  0.0000  0.0000  0.0000  0.0000  0.0000 </r>
       </set>
       <set comment="band 14">
        <r>  0.0155  0.0017  0.0000  0.0008  0.0009  0.0001  0.0237  0.0000  0.0024 </r>
        <r>  0.0116  0.0057  0.0052  0.0018  0.0000  0.0000  0.0000  0.0000  0.0000 </r>
        <r>  0.0117  0.0056  0.0056  0.0020  0.0000  0.0000  0.0000  0.0000  0.0000 </r>
       </set>
      </set>
      <set comment="kpoint 137">
       <set comment="band 1">
        <r>  0.1254  0.0026  0.0000  0.0009  0.0004  0.0000  0.0003  0.0000  0.0011 </r>
        <r>  0.2776  0.0003  0.0051  0.0001  0.0000  0.0000  0.0000  0.0000  0.0000 </r>
        <r>  0.2773  0.0003  0.0051  0.0001  0.0000  0.0000  0.0000  0.0000  0.0000 </r>
       </set>
       <set comment="band 2">
        <r>  0.0000  0.0000  0.0566  0.0000  0.0000  0.0050  0.0000  0.0017  0.0000 </r>
        <r>  0.3160  0.0002  0.0005  0.0001  0.0000  0.0000  0.0000  0.0000  0.0000 </r>
        <r>  0.3163  0.0002  0.0005  0.0001  0.0000  0.0000  0.0000  0.0000  0.0000 </r>
       </set>
       <set comment="band 3">
        <r>  0.1173  0.0048  0.0000  0.0017  0.0023  0.0000  0.1992  0.0000  0.0061 </r>
        <r>  0.0167  0.0007  0.1282  0.0002  0.0000  0.0000  0.0000  0.0000  0.0000 </r>
        <r>  0.0167  0.0007  0.1281  0.0002  0.0000  0.0000  0.0000  0.0000  0.0000 </r>
       </set>
       <set comment="band 4">
        <r>  0.0180  0.0040  0.0000  0.0036  0.1350  0.0000  0.0003  0.0000  0.4044 </r>
        <r>  0.0043  0.0862  0.0002  0.0287  0.0000  0.0000  0.0000  0.0000  0.0000 </r>
        <r>  0.0043  0.0861  0.0002  0.0287  0.0000  0.0000  0.0000  0.0000  0.0000 </r>
       </set>
       <set comment="band 5">
        <r>  0.0000  0.0046  0.0000  0.0064  0.4311  0.0000  0.0003  0.0000  0.1439 </r>
        <r>  0.0000  0.0300  0.0000  0.0899  0.0000  0.0000  0.0000  0.0000  0.0000 </r>
        <r>  0.0000  0.0299  0.0000  0.0898  0.0000  0.0000  0.0000  0.0000  0.0000 </r>
       </set>
       <set comment="band 6">
        <r>  0.0000  0.0000  0.0094  0.0000  0.0000  0.2311  0.0000  0.0804  0.0000 </r>
        <r>  0.0002  0.0490  0.1207  0.0187  0.0000  0.0000  0.0000  0.0000  0.0000 </r>
        <r>  0.0002  0.0491  0.1207  0.0187  0.0000  0.0000  0.0000  0.0000  0.0000 </r>
       </set>
       <set comment="band 7">
        <r>  0.0000  0.0000  0.0004  0.0000  0.0000  0.1352  0.0000  0.3918  0.0000 </r>
        <r>  0.0003  0.0456  0.0005  0.1077  0.0000  0.0000  0.0000  0.0000  0.0000 </r>
        <r>  0.0003  0.0456  0.0005  0.1078  0.0000  0.0000  0.0000  0.0000  0.0000 </r>
       </set>
       <set comment="band 8">
        <r>  0.0000  0.0000  0.0533  0.0000  0.0000  0.1284  0.0000  0.0429  0.0000 </r>
        <r>  0.0001  0.0715  0.1252  0.0318  0.0000  0.0000  0.0000  0.0000  0.0000 </r>
        <r>  0.0001  0.0715  0.1251  0.0318  0.0000  0.0000  0.0000  0.0000  0.0000 </r>
       </set>
       <set comment="band 9">
        <r>  0.0164  0.0006  0.0000  0.0002  0.0054  0.0000  0.5841  0.0000  0.0143 </r>
        <r>  0.0037  0.0052  0.0651  0.0018  0.0000  0.0000  0.0000  0.0000  0.0000 </r>
        <r>  0.0037  0.0052  0.0652  0.0018  0.0000  0.0000  0.0000  0.0000  0.0000 </r>
       </set>
       <set comment="band 10">
        <r>  0.0000  0.0000  0.0005  0.0000  0.0000  0.2710  0.0000  0.1413  0.0000 </r>
        <r>  0.0113  0.1073  0.0018  0.0358  0.0000  0.0000  0.0000  0.0000  0.0000 </r>
        <r>  0.0113  0.1060  0.0018  0.0354  0.0000  0.0000  0.0000  0.0000  0.0000 </r>
       </set>
       <set comment="band 11">
        <r>  0.0019  0.0108  0.0000  0.0049  0.0778  0.0000  0.0209  0.0000  0.2331 </r>
        <r>  0.0067  0.1386  0.0027  0.0466  0.0000  0.0000  0.0000  0.0000  0.0000 </r>
        <r>  0.0068  0.1400  0.0027  0.0469  0.0000  0.0000  0.0000  0.0000  0.0000 </r>
       </set>
       <set comment="band 12">
        <r>  0.0004  0.0059  0.0000  0.0133  0.2408  0.0000  0.0014  0.0000  0.0805 </r>
        <r>  0.0000  0.0540  0.0001  0.1617  0.0000  0.0000  0.0000  0.0000  0.0000 </r>
        <r>  0.0000  0.0537  0.0001  0.1607  0.0000  0.0000  0.0000  0.0000  0.0000 </r>
       </set>
       <set comment="band 13">
        <r>  0.0000  0.0000  0.0003  0.0000  0.0000  0.1299  0.0000  0.2469  0.0000 </r>
        <r>  0.0001  0.0456  0.0004  0.1366  0.0000  0.0000  0.0000  0.0000  0.0000 </r>
        <r>  0.0001  0.0460  0.0004  0.1376  0.0000  0.0000  0.0000  0.0000  0.0000 </r>
       </set>
       <set comment="band 14">
        <r>  0.0105  0.0007  0.0006  0.0003  0.0004  0.0004  0.0133  0.0002  0.0010 </r>
        <r>  0.0091  0.0028  0.0101  0.0011  0.0000  0.0000  0.0000  0.0000  0.0000 </r>
        <r>  0.0082  0.0028  0.0090  0.0008  0.0000  0.0000  0.0000  0.0000  0.0000 </r>
       </set>
      </set>
      <set comment="kpoint 138">
       <set comment="band 1">
        <r>  0.1289  0.0012  0.0000  0.0004  0.0002  0.0000  0.0003  0.0000  0.0005 </r>
        <r>  0.2766  0.0002  0.0051  0.0001  0.0000  0.0000  0.0000  0.0000  0.0000 </r>
        <r>  0.2762  0.0002  0.0051  0.0001  0.0000  0.0000  0.0000  0.0000  0.0000 </r>
       </set>
       <set comment="band 2">
        <r>  0.0000  0.0000  0.0583  0.0000  0.0000  0.0022  0.0000  0.0007  0.0000 </r>
        <r>  0.3156  0.0001  0.0004  0.0000  0.0000  0.0000  0.0000  0.0000  0.0000 </r>
        <r>  0.3160  0.0001  0.0004  0.0000  0.0000  0.0000  0.0000  0.0000  0.0000 </r>
       </set>
       <set comment="band 3">
        <r>  0.1237  0.0022  0.0000  0.0007  0.0009  0.0000  0.2031  0.0000  0.0024 </r>
        <r>  0.0174  0.0003  0.1267  0.0001  0.0000  0.0000  0.0000  0.0000  0.0000 </r>
        <r>  0.0174  0.0003  0.1267  0.0001  0.0000  0.0000  0.0000  0.0000  0.0000 </r>
       </set>
       <set comment="band 4">
        <r>  0.0081  0.0045  0.0000  0.0025  0.1428  0.0000  0.0001  0.0000  0.4281 </r>
        <r>  0.0020  0.0856  0.0000  0.0285  0.0000  0.0000  0.0000  0.0000  0.0000 </r>
        <r>  0.0020  0.0855  0.0000  0.0285  0.0000  0.0000  0.0000  0.0000  0.0000 </r>
       </set>
       <set comment="band 5">
        <r>  0.0000  0.0029  0.0000  0.0056  0.4409  0.0000  0.0000  0.0000  0.1470 </r>
        <r>  0.0000  0.0291  0.0000  0.0872  0.0000  0.0000  0.0000  0.0000  0.0000 </r>
        <r>  0.0000  0.0290  0.0000  0.0871  0.0000  0.0000  0.0000  0.0000  0.0000 </r>
       </set>
       <set comment="band 6">
        <r>  0.0000  0.0000  0.0180  0.0000  0.0000  0.2011  0.0000  0.0681  0.0000 </r>
        <r>  0.0002  0.0428  0.1384  0.0154  0.0000  0.0000  0.0000  0.0000  0.0000 </r>
        <r>  0.0002  0.0429  0.1384  0.0155  0.0000  0.0000  0.0000  0.0000  0.0000 </r>
       </set>
       <set comment="band 7">
        <r>  0.0000  0.0000  0.0001  0.0000  0.0000  0.1357  0.0000  0.4022  0.0000 </r>
        <r>  0.0001  0.0415  0.0001  0.1108  0.0000  0.0000  0.0000  0.0000  0.0000 </r>
        <r>  0.0001  0.0416  0.0001  0.1108  0.0000  0.0000  0.0000  0.0000  0.0000 </r>
       </set>
       <set comment="band 8">
        <r>  0.0000  0.0000  0.0410  0.0000  0.0000  0.1842  0.0000  0.0616  0.0000 </r>
        <r>  0.0000  0.0739  0.1085  0.0282  0.0000  0.0000  0.0000  0.0000  0.0000 </r>
        <r>  0.0000  0.0739  0.1085  0.0282  0.0000  0.0000  0.0000  0.0000  0.0000 </r>
       </set>
       <set comment="band 9">
        <r>  0.0158  0.0003  0.0000  0.0001  0.0020  0.0000  0.5943  0.0000  0.0057 </r>
        <r>  0.0029  0.0023  0.0676  0.0008  0.0000  0.0000  0.0000  0.0000  0.0000 </r>
        <r>  0.0029  0.0023  0.0677  0.0008  0.0000  0.0000  0.0000  0.0000  0.0000 </r>
       </set>
       <set comment="band 10">
        <r>  0.0000  0.0000  0.0004  0.0000  0.0000  0.2691  0.0000  0.1129  0.0000 </r>
        <r>  0.0058  0.1238  0.0007  0.0414  0.0000  0.0000  0.0000  0.0000  0.0000 </r>
        <r>  0.0058  0.1232  0.0007  0.0412  0.0000  0.0000  0.0000  0.0000  0.0000 </r>
       </set>
       <set comment="band 11">
        <r>  0.0016  0.0124  0.0000  0.0048  0.0769  0.0000  0.0083  0.0001  0.2295 </r>
        <r>  0.0040  0.1518  0.0012  0.0547  0.0000  0.0000  0.0000  0.0000  0.0000 </r>
        <r>  0.0040  0.1582  0.0012  0.0492  0.0000  0.0000  0.0000  0.0000  0.0000 </r>
       </set>
       <set comment="band 12">
        <r>  0.0000  0.0000  0.0001  0.0000  0.0000  0.1081  0.0000  0.2571  0.0001 </r>
        <r>  0.0000  0.0493  0.0001  0.1361  0.0000  0.0000  0.0000  0.0000  0.0000 </r>
        <r>  0.0000  0.0435  0.0001  0.1412  0.0000  0.0000  0.0000  0.0000  0.0000 </r>
       </set>
       <set comment="band 13">
        <r>  0.0001  0.0053  0.0000  0.0138  0.2318  0.0000  0.0002  0.0000  0.0777 </r>
        <r>  0.0000  0.0559  0.0000  0.1669  0.0000  0.0000  0.0000  0.0000  0.0000 </r>
        <r>  0.0000  0.0560  0.0000  0.1674  0.0000  0.0000  0.0000  0.0000  0.0000 </r>
       </set>
       <set comment="band 14">
        <r>  0.0238  0.0007  0.0000  0.0003  0.0004  0.0000  0.0232  0.0000  0.0010 </r>
        <r>  0.0184  0.0031  0.0043  0.0010  0.0000  0.0000  0.0000  0.0000  0.0000 </r>
        <r>  0.0179  0.0031  0.0037  0.0010  0.0000  0.0000  0.0000  0.0000  0.0000 </r>
       </set>
      </set>
      <set comment="kpoint 139">
       <set comment="band 1">
        <r>  0.1311  0.0003  0.0000  0.0001  0.0000  0.0000  0.0002  0.0000  0.0001 </r>
        <r>  0.2759  0.0000  0.0051  0.0000  0.0000  0.0000  0.0000  0.0000  0.0000 </r>
        <r>  0.2755  0.0000  0.0051  0.0000  0.0000  0.0000  0.0000  0.0000  0.0000 </r>
       </set>
       <set comment="band 2">
        <r>  0.0000  0.0000  0.0593  0.0000  0.0000  0.0006  0.0000  0.0002  0.0000 </r>
        <r>  0.3154  0.0000  0.0004  0.0000  0.0000  0.0000  0.0000  0.0000  0.0000 </r>
        <r>  0.3158  0.0000  0.0004  0.0000  0.0000  0.0000  0.0000  0.0000  0.0000 </r>
       </set>
       <set comment="band 3">
        <r>  0.1274  0.0006  0.0000  0.0002  0.0002  0.0000  0.2054  0.0000  0.0006 </r>
        <r>  0.0178  0.0001  0.1258  0.0000  0.0000  0.0000  0.0000  0.0000  0.0000 </r>
        <r>  0.0178  0.0001  0.1257  0.0000  0.0000  0.0000  0.0000  0.0000  0.0000 </r>
       </set>
       <set comment="band 4">
        <r>  0.0020  0.0049  0.0000  0.0019  0.1477  0.0000  0.0000  0.0000  0.4430 </r>
        <r>  0.0005  0.0853  0.0000  0.0284  0.0000  0.0000  0.0000  0.0000  0.0000 </r>
        <r>  0.0005  0.0852  0.0000  0.0284  0.0000  0.0000  0.0000  0.0000  0.0000 </r>
       </set>
       <set comment="band 5">
        <r>  0.0000  0.0020  0.0000  0.0052  0.4464  0.0000  0.0000  0.0000  0.1488 </r>
        <r>  0.0000  0.0286  0.0000  0.0856  0.0000  0.0000  0.0000  0.0000  0.0000 </r>
        <r>  0.0000  0.0285  0.0000  0.0856  0.0000  0.0000  0.0000  0.0000  0.0000 </r>
       </set>
       <set comment="band 6">
        <r>  0.0000  0.0000  0.0322  0.0000  0.0000  0.1361  0.0000  0.0455  0.0000 </r>
        <r>  0.0003  0.0305  0.1725  0.0104  0.0000  0.0000  0.0000  0.0000  0.0000 </r>
        <r>  0.0003  0.0305  0.1725  0.0104  0.0000  0.0000  0.0000  0.0000  0.0000 </r>
       </set>
       <set comment="band 7">
        <r>  0.0000  0.0000  0.0000  0.0000  0.0000  0.1362  0.0000  0.4075  0.0000 </r>
        <r>  0.0000  0.0388  0.0000  0.1128  0.0000  0.0000  0.0000  0.0000  0.0000 </r>
        <r>  0.0000  0.0388  0.0000  0.1128  0.0000  0.0000  0.0000  0.0000  0.0000 </r>
       </set>
       <set comment="band 8">
        <r>  0.0000  0.0000  0.0242  0.0000  0.0000  0.2667  0.0000  0.0891  0.0000 </r>
        <r>  0.0000  0.0838  0.0746  0.0289  0.0000  0.0000  0.0000  0.0000  0.0000 </r>
        <r>  0.0000  0.0838  0.0746  0.0289  0.0000  0.0000  0.0000  0.0000  0.0000 </r>
       </set>
       <set comment="band 9">
        <r>  0.0154  0.0001  0.0000  0.0000  0.0004  0.0000  0.5991  0.0000  0.0013 </r>
        <r>  0.0024  0.0006  0.0689  0.0002  0.0000  0.0000  0.0000  0.0000  0.0000 </r>
        <r>  0.0024  0.0006  0.0690  0.0002  0.0000  0.0000  0.0000  0.0000  0.0000 </r>
       </set>
       <set comment="band 10">
        <r>  0.0000  0.0000  0.0001  0.0000  0.0000  0.2732  0.0000  0.0888  0.0000 </r>
        <r>  0.0016  0.1399  0.0002  0.0429  0.0000  0.0000  0.0000  0.0000  0.0000 </r>
        <r>  0.0016  0.1369  0.0001  0.0417  0.0000  0.0000  0.0000  0.0000  0.0000 </r>
       </set>
       <set comment="band 11">
        <r>  0.0000  0.0000  0.0000  0.0000  0.0000  0.0877  0.0000  0.2700  0.0000 </r>
        <r>  0.0000  0.0432  0.0000  0.1454  0.0000  0.0000  0.0000  0.0000  0.0000 </r>
        <r>  0.0000  0.0442  0.0000  0.1395  0.0000  0.0000  0.0000  0.0000  0.0000 </r>
       </set>
       <set comment="band 12">
        <r>  0.0006  0.0140  0.0000  0.0045  0.0736  0.0000  0.0019  0.0000  0.2282 </r>
        <r>  0.0012  0.1684  0.0003  0.0526  0.0000  0.0000  0.0000  0.0000  0.0000 </r>
        <r>  0.0012  0.1695  0.0003  0.0555  0.0000  0.0000  0.0000  0.0000  0.0000 </r>
       </set>
       <set comment="band 13">
        <r>  0.0000  0.0046  0.0000  0.0144  0.2287  0.0000  0.0000  0.0001  0.0737 </r>
        <r>  0.0000  0.0547  0.0000  0.1703  0.0000  0.0000  0.0000  0.0000  0.0000 </r>
        <r>  0.0000  0.0557  0.0000  0.1746  0.0000  0.0000  0.0000  0.0000  0.0000 </r>
       </set>
       <set comment="band 14">
        <r>  0.0275  0.0002  0.0003  0.0001  0.0001  0.0000  0.0189  0.0000  0.0002 </r>
        <r>  0.0234  0.0010  0.0068  0.0003  0.0000  0.0000  0.0000  0.0000  0.0000 </r>
        <r>  0.0184  0.0009  0.0033  0.0003  0.0000  0.0000  0.0000  0.0000  0.0000 </r>
       </set>
      </set>
      <set comment="kpoint 140">
       <set comment="band 1">
        <r>  0.1318  0.0000  0.0000  0.0000  0.0000  0.0000  0.0002  0.0000  0.0000 </r>
        <r>  0.2757  0.0000  0.0051  0.0000  0.0000  0.0000  0.0000  0.0000  0.0000 </r>
        <r>  0.2753  0.0000  0.0051  0.0000  0.0000  0.0000  0.0000  0.0000  0.0000 </r>
       </set>
       <set comment="band 2">
        <r>  0.0000  0.0000  0.0597  0.0000  0.0000  0.0000  0.0000  0.0000  0.0000 </r>
        <r>  0.3154  0.0000  0.0004  0.0000  0.0000  0.0000  0.0000  0.0000  0.0000 </r>
        <r>  0.3157  0.0000  0.0004  0.0000  0.0000  0.0000  0.0000  0.0000  0.0000 </r>
       </set>
       <set comment="band 3">
        <r>  0.1285  0.0000  0.0000  0.0000  0.0000  0.0000  0.2061  0.0000  0.0000 </r>
        <r>  0.0179  0.0000  0.1255  0.0000  0.0000  0.0000  0.0000  0.0000  0.0000 </r>
        <r>  0.0180  0.0000  0.1254  0.0000  0.0000  0.0000  0.0000  0.0000  0.0000 </r>
       </set>
       <set comment="band 4">
        <r>  0.0000  0.0002  0.0000  0.0065  0.5797  0.0000  0.0000  0.0000  0.0178 </r>
        <r>  0.0000  0.0034  0.0000  0.1101  0.0000  0.0000  0.0000  0.0000  0.0000 </r>
        <r>  0.0000  0.0034  0.0000  0.1100  0.0000  0.0000  0.0000  0.0000  0.0000 </r>
       </set>
       <set comment="band 5">
        <r>  0.0000  0.0065  0.0000  0.0002  0.0178  0.0000  0.0000  0.0000  0.5797 </r>
        <r>  0.0000  0.1101  0.0000  0.0034  0.0000  0.0000  0.0000  0.0000  0.0000 </r>
        <r>  0.0000  0.1100  0.0000  0.0034  0.0000  0.0000  0.0000  0.0000  0.0000 </r>
       </set>
       <set comment="band 6">
        <r>  0.0000  0.0000  0.0555  0.0000  0.0000  0.0000  0.0000  0.0000  0.0000 </r>
        <r>  0.0003  0.0000  0.2472  0.0000  0.0000  0.0000  0.0000  0.0000  0.0000 </r>
        <r>  0.0003  0.0000  0.2472  0.0000  0.0000  0.0000  0.0000  0.0000  0.0000 </r>
       </set>
       <set comment="band 7">
        <r>  0.0000  0.0000  0.0000  0.0000  0.0000  0.5047  0.0000  0.0408  0.0000 </r>
        <r>  0.0000  0.1400  0.0000  0.0113  0.0000  0.0000  0.0000  0.0000  0.0000 </r>
        <r>  0.0000  0.1400  0.0000  0.0113  0.0000  0.0000  0.0000  0.0000  0.0000 </r>
       </set>
       <set comment="band 8">
        <r>  0.0000  0.0000  0.0000  0.0000  0.0000  0.0408  0.0000  0.5047  0.0000 </r>
        <r>  0.0000  0.0113  0.0000  0.1400  0.0000  0.0000  0.0000  0.0000  0.0000 </r>
        <r>  0.0000  0.0113  0.0000  0.1400  0.0000  0.0000  0.0000  0.0000  0.0000 </r>
       </set>
       <set comment="band 9">
        <r>  0.0152  0.0000  0.0000  0.0000  0.0000  0.0000  0.6004  0.0000  0.0000 </r>
        <r>  0.0023  0.0000  0.0694  0.0000  0.0000  0.0000  0.0000  0.0000  0.0000 </r>
        <r>  0.0023  0.0000  0.0694  0.0000  0.0000  0.0000  0.0000  0.0000  0.0000 </r>
       </set>
       <set comment="band 10">
        <r>  0.0000  0.0000  0.0000  0.0000  0.0000  0.0254  0.0000  0.3298  0.0000 </r>
        <r>  0.0000  0.0134  0.0000  0.1735  0.0000  0.0000  0.0000  0.0000  0.0000 </r>
        <r>  0.0000  0.0133  0.0000  0.1728  0.0000  0.0000  0.0000  0.0000  0.0000 </r>
       </set>
       <set comment="band 11">
        <r>  0.0000  0.0000  0.0000  0.0000  0.0000  0.3297  0.0000  0.0254  0.0000 </r>
        <r>  0.0000  0.1736  0.0000  0.0133  0.0000  0.0000  0.0000  0.0000  0.0000 </r>
        <r>  0.0000  0.1727  0.0000  0.0134  0.0000  0.0000  0.0000  0.0000  0.0000 </r>
       </set>
       <set comment="band 12">
        <r>  0.0000  0.0092  0.0000  0.0098  0.1544  0.0000  0.0000  0.0000  0.1457 </r>
        <r>  0.0000  0.1111  0.0000  0.1177  0.0000  0.0000  0.0000  0.0000  0.0000 </r>
        <r>  0.0000  0.1115  0.0000  0.1181  0.0000  0.0000  0.0000  0.0000  0.0000 </r>
       </set>
       <set comment="band 13">
        <r>  0.0000  0.0098  0.0000  0.0092  0.1457  0.0000  0.0000  0.0000  0.1544 </r>
        <r>  0.0000  0.1176  0.0000  0.1112  0.0000  0.0000  0.0000  0.0000  0.0000 </r>
        <r>  0.0000  0.1182  0.0000  0.1114  0.0000  0.0000  0.0000  0.0000  0.0000 </r>
       </set>
       <set comment="band 14">
        <r>  0.0336  0.0000  0.0000  0.0000  0.0000  0.0000  0.0224  0.0000  0.0000 </r>
        <r>  0.0249  0.0000  0.0024  0.0000  0.0000  0.0000  0.0000  0.0000  0.0000 </r>
        <r>  0.0259  0.0000  0.0033  0.0000  0.0000  0.0000  0.0000  0.0000  0.0000 </r>
       </set>
      </set>
     </set>
    </set>
   </array>
  </projected>
 </calculation>
 <structure name="finalpos" >
  <crystal>
   <varray name="basis" >
    <v>       3.18985683       0.00000000       0.00000000 </v>
    <v>      -1.59492842       2.76249705       0.00000000 </v>
    <v>       0.00000000       0.00000000      30.79397887 </v>
   </varray>
   <i name="volume">    271.35562051 </i>
   <varray name="rec_basis" >
    <v>       0.31349369       0.18099567       0.00000000 </v>
    <v>       0.00000000       0.36199134       0.00000000 </v>
    <v>       0.00000000       0.00000000       0.03247388 </v>
   </varray>
  </crystal>
  <varray name="positions" >
   <v>       0.33333300       0.66666700       0.12046214 </v>
   <v>       0.66666700       0.33333300       0.06984045 </v>
   <v>       0.66666600       0.33333300       0.17108384 </v>
  </varray>
 </structure>
</modeling>
