unknown system                          
   1.00000000000000     
     3.190316    0.000000    0.000000
    -1.595158    2.762894    0.000000
     0.000000    0.000000   14.879004
   Mo   S 
     2     4
Direct
  0.333333  0.666667  0.250000
  0.666667  0.333333  0.750000
  0.333333  0.666667  0.855174
  0.666667  0.333333  0.144826
  0.666666  0.333333  0.355174
  0.333334  0.666667  0.644826
 
   36   36  160
 0.39550658660E+00 0.39858266322E+00 0.40781676147E+00 0.42322718343E+00 0.44479010362E+00
 0.47236990134E+00 0.50564269066E+00 0.54403129156E+00 0.58666896026E+00 0.63240168989E+00
 0.67982761824E+00 0.72736306886E+00 0.77332139537E+00 0.81599240917E+00 0.85371573632E+00
 0.88495021509E+00 0.90834876652E+00 0.92284598358E+00 0.92775144603E+00 0.92282505728E+00
 0.90830671802E+00 0.88488771482E+00 0.85363555825E+00 0.81589978445E+00 0.77322307984E+00
 0.72726564527E+00 0.67973602437E+00 0.63231869819E+00 0.58659564155E+00 0.54396792576E+00
 0.50558947587E+00 0.47232711291E+00 0.44475779198E+00 0.42320479893E+00 0.40780310711E+00
 0.39857631830E+00 0.39857671010E+00 0.39857951246E+00 0.40473506155E+00 0.41706058385E+00
 0.43555733279E+00 0.46015394254E+00 0.49063278137E+00 0.52655515024E+00 0.56720713261E+00
 0.61158159295E+00 0.65839885825E+00 0.70615972996E+00 0.75321959505E+00 0.79786856419E+00
 0.83840544762E+00 0.87320605819E+00 0.90079721703E+00 0.91994460216E+00 0.92974913924E+00
 0.92973450561E+00 0.91990214538E+00 0.90073269928E+00 0.87312959892E+00 0.83832603734E+00
 0.79778851318E+00 0.75313610479E+00 0.70607113045E+00 0.65830799476E+00 0.61149461375E+00
 0.56713078456E+00 0.52649394626E+00 0.49058672514E+00 0.46011946594E+00 0.43553139838E+00
 0.41704282942E+00 0.40472553249E+00 0.40780426798E+00 0.40472893749E+00 0.40781057595E+00
 0.41705819208E+00 0.43247924483E+00 0.45403950601E+00 0.48160281646E+00 0.51485784839E+00
 0.55325110796E+00 0.59594639809E+00 0.64181910577E+00 0.68948546949E+00 0.73736395770E+00
 0.78375640107E+00 0.82692802754E+00 0.86517677104E+00 0.89690411306E+00 0.92070299315E+00
 0.93546007679E+00 0.94045484042E+00 0.93543593681E+00 0.92065445811E+00 0.89683670810E+00
 0.86510079033E+00 0.82684952390E+00 0.78367406923E+00 0.73727609317E+00 0.68939531270E+00
 0.64173233504E+00 0.59586787681E+00 0.55318497805E+00 0.51480633626E+00 0.48156373940E+00
 0.45400858484E+00 0.43245539810E+00 0.41704322111E+00 0.42320613767E+00 0.41704756544E+00
 0.41705009959E+00 0.42321681180E+00 0.43555279320E+00 0.45403902280E+00 0.47859076560E+00
 0.50899765606E+00 0.54485450807E+00 0.58550448767E+00 0.63000842974E+00 0.67714291933E+00
 0.72543230229E+00 0.77321699805E+00 0.81874052416E+00 0.86023005941E+00 0.89596914164E+00
 0.92438282640E+00 0.94414344612E+00 0.95428093263E+00 0.95427694998E+00 0.94412613095E+00
 0.92434391258E+00 0.89590791094E+00 0.86015127317E+00 0.81864857581E+00 0.77311845651E+00
 0.72533834124E+00 0.67706183164E+00 0.62993922010E+00 0.58544284641E+00 0.54480046771E+00
 0.50895266135E+00 0.47855294813E+00 0.45400724600E+00 0.43553045124E+00 0.44475779199E+00
 0.43553727282E+00 0.43246388845E+00 0.43554173465E+00 0.44477398943E+00 0.46014595256E+00
 0.48160035110E+00 0.50899765288E+00 0.54205506361E+00 0.58028208221E+00 0.62293372573E+00
 0.66898348009E+00 0.71711797527E+00 0.76577063563E+00 0.81319878529E+00 0.85757685770E+00
 0.89708114391E+00 0.92997654586E+00 0.95472480102E+00 0.97010580629E+00 0.97532728510E+00
 0.97010712820E+00 0.95471359495E+00 0.92994111228E+00 0.89701955190E+00 0.85749196936E+00
 0.81309839609E+00 0.76567162791E+00 0.71703691643E+00 0.66892096866E+00 0.62287780229E+00
 0.58022658985E+00 0.54200417260E+00 0.50895417154E+00 0.48156257851E+00 0.46011622520E+00
 0.47232419107E+00 0.46012545003E+00 0.45402019060E+00 0.45402078897E+00 0.46013354683E+00
 0.47234693112E+00 0.49061658137E+00 0.51484766295E+00 0.54485242774E+00 0.58028533653E+00
 0.62058457947E+00 0.66493067995E+00 0.71221399918E+00 0.76102550428E+00 0.80970002013E+00
 0.85640536164E+00 0.89923960617E+00 0.93632508789E+00 0.96592088427E+00 0.98655704475E+00
 0.99716216098E+00 0.99716329919E+00 0.98655228768E+00 0.96589807315E+00 0.93628270971E+00
 0.89918051616E+00 0.85632924310E+00 0.80961317342E+00 0.76094504550E+00 0.71214964707E+00
 0.66487333630E+00 0.62052388818E+00 0.58022651694E+00 0.54480472851E+00 0.51480925819E+00
 0.49058341147E+00 0.50558365914E+00 0.49059184290E+00 0.48157926895E+00 0.47857101977E+00
 0.48158164066E+00 0.49060783912E+00 0.50561304522E+00 0.52652607369E+00 0.55322739429E+00
 0.58549572159E+00 0.62293822828E+00 0.66493627469E+00 0.71059982636E+00 0.75872540630E+00
 0.80779358794E+00 0.85603247966E+00 0.90151735106E+00 0.94227086023E+00 0.97637641061E+00
 0.10021233945E+01 0.10181581641E+01 0.10236048007E+01 0.10181520849E+01 0.10021010843E+01
 0.97633894601E+00 0.94222962347E+00 0.90147219103E+00 0.85597337754E+00 0.80772347983E+00
 0.75865850733E+00 0.71053802370E+00 0.66487041432E+00 0.62287198558E+00 0.58544418529E+00
 0.55319195564E+00 0.52649433790E+00 0.54396233912E+00 0.52649831122E+00 0.51482456267E+00
 0.50897652821E+00 0.50897629894E+00 0.51483438746E+00 0.52652740091E+00 0.54399697168E+00
 0.56716452687E+00 0.59590712071E+00 0.62998628943E+00 0.66897709797E+00 0.71221313111E+00
 0.75872561669E+00 0.80719657979E+00 0.85598089779E+00 0.90319668023E+00 0.94683047971E+00
 0.98484486562E+00 0.10153224212E+01 0.10366393041E+01 0.10476145555E+01 0.10476149042E+01
 0.10366298330E+01 0.10152935415E+01 0.98480930914E+00 0.94679992071E+00 0.90315894666E+00
 0.85592313814E+00 0.80712972758E+00 0.75866409382E+00 0.71215231154E+00 0.66891253309E+00
 0.62993229482E+00 0.59587346333E+00 0.56713676269E+00 0.58659564145E+00 0.56713592649E+00
 0.55320245071E+00 0.54482830138E+00 0.54203102071E+00 0.54483056980E+00 0.55322629989E+00
 0.56717851240E+00 0.58663229692E+00 0.61153169834E+00 0.64176898494E+00 0.67710166961E+00
 0.71708519871E+00 0.76100383754E+00 0.80778869680E+00 0.85598551363E+00 0.90381867000E+00
 0.94930292023E+00 0.99034917553E+00 0.10248930156E+01 0.10510762904E+01 0.10674299696E+01
 0.10730014577E+01 0.10674431387E+01 0.10510759494E+01 0.10248719973E+01 0.99032453143E+00
 0.94927516388E+00 0.90376958960E+00 0.85591845095E+00 0.80772929662E+00 0.76095824114E+00
 0.71703691632E+00 0.67705021908E+00 0.64173117423E+00 0.61150449575E+00 0.63232768963E+00
 0.61150244726E+00 0.59588058252E+00 0.58546915256E+00 0.58025828685E+00 0.58025514528E+00
 0.58547813083E+00 0.59591995672E+00 0.61155228162E+00 0.63236465098E+00 0.65835175136E+00
 0.68943341530E+00 0.72537319009E+00 0.76570915554E+00 0.80965717500E+00 0.85602136487E+00
 0.90320318236E+00 0.94930780214E+00 0.99226192238E+00 0.10299271649E+01 0.10602675679E+01
 0.10815586150E+01 0.10925508097E+01 0.10925674864E+01 0.10815843166E+01 0.10602700686E+01
 0.10299122253E+01 0.99224400520E+00 0.94927388153E+00 0.90314436871E+00 0.85596438621E+00
 0.80962508688E+00 0.76568346829E+00 0.72533068855E+00 0.68938632132E+00 0.65831659455E+00
 0.67975095489E+00 0.65831875632E+00 0.64173842406E+00 0.62995767631E+00 0.62291145473E+00
 0.62055853151E+00 0.62290681028E+00 0.62997980579E+00 0.64178873800E+00 0.65836598734E+00
 0.67978922694E+00 0.70612191336E+00 0.73731777821E+00 0.77314945184E+00 0.81312241832E+00
 0.85635171434E+00 0.90149626235E+00 0.94682536664E+00 0.99034902365E+00 0.10299323897E+01
 0.10634358441E+01 0.10889263733E+01 0.11048855378E+01 0.11103341180E+01 0.11049097896E+01
 0.10889375715E+01 0.10634240267E+01 0.10299212167E+01 0.99033946189E+00 0.94679433405E+00
 0.90145144375E+00 0.85632632127E+00 0.81311332663E+00 0.77311979521E+00 0.73726232347E+00
 0.70607152224E+00 0.72727739321E+00 0.70608207787E+00 0.68939688850E+00 0.67707042934E+00
 0.66895199728E+00 0.66491542139E+00 0.66490995548E+00 0.66895857148E+00 0.67711167004E+00
 0.68944883270E+00 0.70611998389E+00 0.72732037350E+00 0.75318843379E+00 0.78371519269E+00
 0.81867388043E+00 0.85750348332E+00 0.89918504267E+00 0.94223479905E+00 0.98482018567E+00
 0.10248887940E+01 0.10602875076E+01 0.10889473795E+01 0.11091191721E+01 0.11195468809E+01
 0.11195552400E+01 0.11091224869E+01 0.10889258235E+01 0.10602673122E+01 0.10248940190E+01
 0.98482664343E+00 0.94221787535E+00 0.89916584630E+00 0.85750086837E+00 0.81865898482E+00
 0.78366232114E+00 0.75312474859E+00 0.77322307996E+00 0.75314287439E+00 0.73727828230E+00
 0.72534218533E+00 0.71706255096E+00 0.71219616440E+00 0.71058483299E+00 0.71219711753E+00
 0.71709541710E+00 0.72540135069E+00 0.73732451962E+00 0.75317411692E+00 0.77327225237E+00
 0.79783308679E+00 0.82688256884E+00 0.86016820849E+00 0.89702120757E+00 0.93627495353E+00
 0.97632949658E+00 0.10152884682E+01 0.10510776519E+01 0.10815913217E+01 0.11049180694E+01
 0.11195605152E+01 0.11245585802E+01 0.11195610300E+01 0.11048948589E+01 0.10815577871E+01
 0.10510759497E+01 0.10153166661E+01 0.97634476256E+00 0.93626809350E+00 0.89701955201E+00
 0.86016747242E+00 0.82684836285E+00 0.79777058334E+00 0.81588732430E+00 0.79778858542E+00
 0.78368152267E+00 0.77312639282E+00 0.76569272645E+00 0.76098898778E+00 0.75870980204E+00
 0.75870937067E+00 0.76101033494E+00 0.76575427300E+00 0.77319425026E+00 0.78372274854E+00
 0.79782370420E+00 0.81593975191E+00 0.83835628040E+00 0.86511868544E+00 0.89591142756E+00
 0.92993120563E+00 0.96587905224E+00 0.10020790271E+01 0.10366112095E+01 0.10674340598E+01
 0.10925717577E+01 0.11103499155E+01 0.11195655931E+01 0.11195710892E+01 0.11103465780E+01
 0.10925460344E+01 0.10674204047E+01 0.10366367070E+01 0.10021135446E+01 0.96588853468E+00
 0.92993150107E+00 0.89592171017E+00 0.86511325051E+00 0.83831318519E+00 0.85361859083E+00
 0.83832106714E+00 0.82686282082E+00 0.81866577182E+00 0.81311743515E+00 0.80964734209E+00
 0.80777159768E+00 0.80717618075E+00 0.80777649099E+00 0.80969002855E+00 0.81319348806E+00
 0.81873220508E+00 0.82690834136E+00 0.83837041043E+00 0.85366719171E+00 0.87314331450E+00
 0.89683444666E+00 0.92432829988E+00 0.95468852673E+00 0.98652327832E+00 0.10181255422E+01
 0.10475970000E+01 0.10729966426E+01 0.10925592973E+01 0.11049011022E+01 0.11091309203E+01
 0.11049174358E+01 0.10925598009E+01 0.10729844902E+01 0.10476093178E+01 0.10181632355E+01
 0.98654936557E+00 0.95469662756E+00 0.92434525153E+00 0.89685483631E+00 0.87312999044E+00
 0.88487650840E+00 0.87312409011E+00 0.86511569149E+00 0.86017468638E+00 0.85750992390E+00
 0.85635085379E+00 0.85601150482E+00 0.85597003157E+00 0.85596552435E+00 0.85602269584E+00
 0.85640422409E+00 0.85758286243E+00 0.86023642869E+00 0.86517406301E+00 0.87318707069E+00
 0.88491330957E+00 0.90073191972E+00 0.92063193577E+00 0.94408984528E+00 0.97006714385E+00
 0.99712968318E+00 0.10235843508E+01 0.10476082062E+01 0.10674328055E+01 0.10815625773E+01
 0.10889244255E+01 0.10889375797E+01 0.10815788126E+01 0.10674290370E+01 0.10476089358E+01
 0.10236160069E+01 0.99717158329E+00 0.97009307285E+00 0.94411358598E+00 0.92066566436E+00
 0.90074429705E+00 0.90830671787E+00 0.90073037503E+00 0.89684699807E+00 0.89592900401E+00
 0.89703571426E+00 0.89919343253E+00 0.90150042696E+00 0.90320616489E+00 0.90382160345E+00
 0.90319951514E+00 0.90152148034E+00 0.89924814994E+00 0.89709573806E+00 0.89598655647E+00
 0.89691645571E+00 0.90079571177E+00 0.90832786169E+00 0.91989098443E+00 0.93539792957E+00
 0.95422454200E+00 0.97527633661E+00 0.99712624960E+00 0.10181425097E+01 0.10366383096E+01
 0.10510776516E+01 0.10602611197E+01 0.10634209136E+01 0.10602732164E+01 0.10510762903E+01
 0.10366302508E+01 0.10181639809E+01 0.99717972274E+00 0.97532728494E+00 0.95426097124E+00
 0.93543477601E+00 0.91991639351E+00 0.92283476221E+00 0.91990369213E+00 0.92065614407E+00
 0.92435554906E+00 0.92995558336E+00 0.93629582261E+00 0.94225556521E+00 0.94684933932E+00
 0.94933491163E+00 0.94933001340E+00 0.94685450995E+00 0.94229186652E+00 0.93634622507E+00
 0.93000096765E+00 0.92440991820E+00 0.92072711992E+00 0.91995742701E+00 0.92284042798E+00
 0.92971657079E+00 0.94040870025E+00 0.95421960700E+00 0.97004623274E+00 0.98651357359E+00
 0.10021011926E+01 0.10153157112E+01 0.10248908368E+01 0.10299226847E+01 0.10299278783E+01
 0.10248924467E+01 0.10153071297E+01 0.10021136897E+01 0.98656967169E+00 0.97011836015E+00
 0.95427256642E+00 0.94044513551E+00 0.92974381888E+00 0.92776483121E+00 0.92973825506E+00
 0.93542970629E+00 0.94412707021E+00 0.95472835728E+00 0.96592059374E+00 0.97637227621E+00
 0.98486307697E+00 0.99039104526E+00 0.99230343166E+00 0.99039133401E+00 0.98488794855E+00
 0.97641935897E+00 0.96596256066E+00 0.95476475158E+00 0.94418074953E+00 0.93549181792E+00
 0.92977064352E+00 0.92775801494E+00 0.92972627575E+00 0.93541131468E+00 0.94407863890E+00
 0.95465817413E+00 0.96586659211E+00 0.97634288194E+00 0.98483193363E+00 0.99035056896E+00
 0.99227091381E+00 0.99036256064E+00 0.98483927897E+00 0.97635720865E+00 0.96591796239E+00
 0.95473818621E+00 0.94414478483E+00 0.93544785240E+00 0.92974953098E+00 0.92285568843E+00
 0.92975281395E+00 0.94044548569E+00 0.95427129627E+00 0.97012387682E+00 0.98658839520E+00
 0.10021471491E+01 0.10153514059E+01 0.10249408335E+01 0.10299755313E+01 0.10299703695E+01
 0.10249451583E+01 0.10153853956E+01 0.10021915428E+01 0.98662227189E+00 0.97016264406E+00
 0.95432761085E+00 0.94049140911E+00 0.92976093862E+00 0.92284042813E+00 0.91991532928E+00
 0.92065284673E+00 0.92431859474E+00 0.92990904034E+00 0.93626712039E+00 0.94223275603E+00
 0.94681566176E+00 0.94930708877E+00 0.94932289891E+00 0.94684577098E+00 0.94226115517E+00
 0.93631246103E+00 0.92998340178E+00 0.92439119239E+00 0.92069328812E+00 0.91993528896E+00
 0.90834876659E+00 0.91994612150E+00 0.93545384946E+00 0.95427522956E+00 0.97534517994E+00
 0.99720929053E+00 0.10182093037E+01 0.10366893048E+01 0.10511419268E+01 0.10603373275E+01
 0.10634795783E+01 0.10603174901E+01 0.10511405504E+01 0.10367172047E+01 0.10182417674E+01
 0.99724180243E+00 0.97539621726E+00 0.95433254570E+00 0.93547843260E+00 0.91993308230E+00
 0.90832786191E+00 0.90075776584E+00 0.89685141393E+00 0.89590924792E+00 0.89702120752E+00
 0.89918793443E+00 0.90148133168E+00 0.90317955114E+00 0.90381867016E+00 0.90321690657E+00
 0.90152316764E+00 0.89922788824E+00 0.89708114396E+00 0.89598244260E+00 0.89690295204E+00
 0.90078218545E+00 0.88493900905E+00 0.90079512887E+00 0.92070453485E+00 0.94414422084E+00
 0.97012256606E+00 0.99720830175E+00 0.10236663217E+01 0.10476741012E+01 0.10675041853E+01
 0.10816552972E+01 0.10890078575E+01 0.10889867246E+01 0.10816223743E+01 0.10675000139E+01
 0.10476916530E+01 0.10236866725E+01 0.99724523617E+00 0.97018355520E+00 0.94419195554E+00
 0.92070620864E+00 0.90076986581E+00 0.88491330975E+00 0.87315452074E+00 0.86511993958E+00
 0.86017454050E+00 0.85752643746E+00 0.85636292030E+00 0.85600116706E+00 0.85596403380E+00
 0.85598651760E+00 0.85604368577E+00 0.85639707730E+00 0.85756850059E+00 0.86024260448E+00
 0.86518797710E+00 0.87319446018E+00 0.85369876888E+00 0.87320082596E+00 0.89691415501E+00
 0.92439420175E+00 0.95473970553E+00 0.98659343436E+00 0.10182153260E+01 0.10476736629E+01
 0.10730602015E+01 0.10926408816E+01 0.11049957607E+01 0.11092008509E+01 0.11049630281E+01
 0.10926198097E+01 0.10730650977E+01 0.10476804468E+01 0.10182248001E+01 0.98663197702E+00
 0.95479510421E+00 0.92441962293E+00 0.89689948820E+00 0.87317586455E+00 0.85366719174E+00
 0.83834382005E+00 0.82686560158E+00 0.81868562862E+00 0.81315431625E+00 0.80966616621E+00
 0.80777172930E+00 0.80719099338E+00 0.80780473860E+00 0.80969709803E+00 0.81318181787E+00
 0.81874186311E+00 0.82694615578E+00 0.83840583914E+00 0.81597994857E+00 0.83840043276E+00
 0.86519159937E+00 0.89598999849E+00 0.92999120058E+00 0.96594356888E+00 0.10021694067E+01
 0.10366986608E+01 0.10674911655E+01 0.10926241380E+01 0.11104267705E+01 0.11196470300E+01
 0.11196335458E+01 0.11104111846E+01 0.10926322700E+01 0.10675012679E+01 0.10366901044E+01
 0.10021693777E+01 0.96597502123E+00 0.93002313292E+00 0.89598873586E+00 0.86517280886E+00
 0.83838287076E+00 0.81593975175E+00 0.79780308819E+00 0.78369098456E+00 0.77316191243E+00
 0.76573060729E+00 0.76100165077E+00 0.75871874286E+00 0.75873786671E+00 0.76103504254E+00
 0.76575532609E+00 0.77320319892E+00 0.78376886151E+00 0.79788141612E+00 0.77332139519E+00
 0.79786836880E+00 0.82694152648E+00 0.86025338922E+00 0.89709723866E+00 0.93633824838E+00
 0.97640978607E+00 0.10153803402E+01 0.10511423335E+01 0.10816294381E+01 0.11049713256E+01
 0.11196388202E+01 0.11246330057E+01 0.11196284680E+01 0.11049799957E+01 0.10816511187E+01
 0.10511405502E+01 0.10153581523E+01 0.97640597391E+00 0.93635405845E+00 0.89709573803E+00
 0.86023009675E+00 0.82692530890E+00 0.79785370266E+00 0.77327225207E+00 0.75315914748E+00
 0.73730284780E+00 0.72538173696E+00 0.71708519863E+00 0.71220117937E+00 0.71060564321E+00
 0.71223445933E+00 0.71711797509E+00 0.72541342518E+00 0.73736279695E+00 0.75323674157E+00
 0.72737481693E+00 0.75322630482E+00 0.78376405273E+00 0.81875778036E+00 0.85759445513E+00
 0.89925259789E+00 0.94229698271E+00 0.98489875947E+00 0.10249617512E+01 0.10603346873E+01
 0.10889965221E+01 0.11091977696E+01 0.11196330300E+01 0.11196228216E+01 0.11091891031E+01
 0.10890096791E+01 0.10603438780E+01 0.10249431149E+01 0.98487620048E+00 0.94229390972E+00
 0.89924525809E+00 0.85755990815E+00 0.81872045724E+00 0.78374695715E+00 0.75320340304E+00
 0.72732037318E+00 0.70611016524E+00 0.68943617198E+00 0.67710314388E+00 0.66895976332E+00
 0.66492452672E+00 0.66494535009E+00 0.66899807709E+00 0.67713250995E+00 0.68947372147E+00
 0.70617108643E+00 0.67984254899E+00 0.70617090176E+00 0.73736608761E+00 0.77322502804E+00
 0.81321756213E+00 0.85642703723E+00 0.90154580575E+00 0.94687988443E+00 0.99041561992E+00
 0.10299904498E+01 0.10634913759E+01 0.10890082702E+01 0.11049862562E+01 0.11104143099E+01
 0.11049638626E+01 0.10889966515E+01 0.10634945092E+01 0.10299800744E+01 0.99038978848E+00
 0.94686421496E+00 0.90153641101E+00 0.85639301769E+00 0.81316158993E+00 0.77318179018E+00
 0.73733945054E+00 0.70613173184E+00 0.67978922672E+00 0.65836074285E+00 0.64178391562E+00
 0.62998070277E+00 0.62291748078E+00 0.62058165764E+00 0.62294865649E+00 0.63000976843E+00
 0.64180533586E+00 0.65839925004E+00 0.63241068145E+00 0.65840973816E+00 0.68948690262E+00
 0.72543623034E+00 0.76579187527E+00 0.80973406983E+00 0.85607068866E+00 0.90324380114E+00
 0.94936277075E+00 0.99232144822E+00 0.10299814583E+01 0.10603374439E+01 0.10816559681E+01
 0.10926455898E+01 0.10926318898E+01 0.10816350994E+01 0.10603316793E+01 0.10299748180E+01
 0.99229444009E+00 0.94933072689E+00 0.90322314670E+00 0.85604289350E+00 0.80968103675E+00
 0.76573282105E+00 0.72539280426E+00 0.68944607638E+00 0.65835699578E+00 0.63236465095E+00
 0.61155096373E+00 0.59592169868E+00 0.58548672986E+00 0.58027342301E+00 0.58028822484E+00
 0.58551214036E+00 0.59593740640E+00 0.61157299308E+00 0.58666896032E+00 0.61158924895E+00
 0.64182531083E+00 0.67715165073E+00 0.71714393158E+00 0.76106917670E+00 0.80784157148E+00
 0.85602783561E+00 0.90387080053E+00 0.94936405305E+00 0.99040068908E+00 0.10249397292E+01
 0.10511423337E+01 0.10675138999E+01 0.10730771688E+01 0.10675051174E+01 0.10511419268E+01
 0.10249414025E+01 0.99037765999E+00 0.94931493281E+00 0.90382160366E+00 0.85598700463E+00
 0.80779345831E+00 0.76101252119E+00 0.71709541705E+00 0.67711019597E+00 0.64177380738E+00
 0.61153301629E+00 0.58663229708E+00 0.56718038737E+00 0.55323321092E+00 0.54484507569E+00
 0.54205506366E+00 0.54486344319E+00 0.55324994699E+00 0.56719646692E+00 0.54402570501E+00
 0.56721214322E+00 0.59595944398E+00 0.63002708449E+00 0.66901457201E+00 0.71226034968E+00
 0.75877645235E+00 0.80724318459E+00 0.85603252296E+00 0.90325837940E+00 0.94688547096E+00
 0.98488142458E+00 0.10153572153E+01 0.10366917873E+01 0.10476792497E+01 0.10476797208E+01
 0.10366983580E+01 0.10153666975E+01 0.98486866354E+00 0.94683404763E+00 0.90318593842E+00
 0.85596441221E+00 0.80718176755E+00 0.75871624440E+00 0.71220906903E+00 0.66897590608E+00
 0.62998539231E+00 0.59590537850E+00 0.56716265206E+00 0.54399697195E+00 0.52653166036E+00
 0.51484499820E+00 0.50899491527E+00 0.50900458160E+00 0.51486343501E+00 0.52654917182E+00
 0.50563687367E+00 0.52655971591E+00 0.55326875717E+00 0.58553095023E+00 0.62296716073E+00
 0.66497278325E+00 0.71064643230E+00 0.75877086568E+00 0.80783575458E+00 0.85607968039E+00
 0.90156655351E+00 0.94230873068E+00 0.97640396896E+00 0.10021569463E+01 0.10182041756E+01
 0.10236551156E+01 0.10182034868E+01 0.10021568541E+01 0.97639147844E+00 0.94226527007E+00
 0.90149460990E+00 0.85600029860E+00 0.80776044730E+00 0.75869734181E+00 0.71057901618E+00
 0.66492170360E+00 0.62292755782E+00 0.58548712216E+00 0.55322048283E+00 0.52652181443E+00
 0.50561304549E+00 0.49061365940E+00 0.48159453413E+00 0.47859210447E+00 0.48160979431E+00
 0.49063317301E+00 0.47236697909E+00 0.49063812976E+00 0.51487591212E+00 0.54488235833E+00
 0.58031366498E+00 0.62061919244E+00 0.66497570536E+00 0.71225768508E+00 0.76105598059E+00
 0.80972215620E+00 0.85642995952E+00 0.89926726821E+00 0.93635286450E+00 0.96595310705E+00
 0.98659635640E+00 0.99720001762E+00 0.99719172857E+00 0.98657576826E+00 0.96592351601E+00
 0.93630844976E+00 0.89920515027E+00 0.85635913782E+00 0.80965026413E+00 0.76097944950E+00
 0.71217570415E+00 0.66490075143E+00 0.62056145380E+00 0.58026705892E+00 0.54483792137E+00
 0.51483705180E+00 0.49061076124E+00 0.47234693126E+00 0.46014018137E+00 0.45403476186E+00
 0.45404242815E+00 0.46015725634E+00 0.44479010360E+00 0.46015976891E+00 0.48161811486E+00
 0.50902143968E+00 0.54208207374E+00 0.58031373786E+00 0.62297297773E+00 0.66902300793E+00
 0.71714393150E+00 0.76578003434E+00 0.81320263140E+00 0.85758555644E+00 0.89709723882E+00
 0.93000081181E+00 0.95475667298E+00 0.97013662147E+00 0.97534517985E+00 0.97011132259E+00
 0.95471497212E+00 0.92994872780E+00 0.89703571439E+00 0.85751828095E+00 0.81313440257E+00
 0.76570803596E+00 0.71706255082E+00 0.66893739997E+00 0.62289652422E+00 0.58025214477E+00
 0.54203102079E+00 0.50897903620E+00 0.48158745740E+00 0.46013931803E+00 0.44477398940E+00
 0.43554860508E+00 0.43247808397E+00 0.43555979036E+00 0.42322852252E+00 0.43556288174E+00
 0.45405109553E+00 0.47860874169E+00 0.50901992940E+00 0.54487809722E+00 0.58552961128E+00
 0.63003401022E+00 0.67716326371E+00 0.72544388290E+00 0.77322368895E+00 0.81874737120E+00
 0.86023718999E+00 0.89597619926E+00 0.92439286293E+00 0.94415676616E+00 0.95429120843E+00
 0.95427966217E+00 0.94412573117E+00 0.92434718310E+00 0.89591570318E+00 0.86016214131E+00
 0.81866443300E+00 0.77314019227E+00 0.72536106246E+00 0.67708083823E+00 0.62995633722E+00
 0.58546150008E+00 0.54481936667E+00 0.50896960277E+00 0.47856968083E+00 0.45402504995E+00
 0.43554592267E+00 0.42321681163E+00 0.41705685308E+00 0.41706153115E+00 0.40781792255E+00
 0.41706543516E+00 0.43248783539E+00 0.45405243452E+00 0.48161927593E+00 0.51487298998E+00
 0.55326177911E+00 0.59595385736E+00 0.64182647201E+00 0.68949589432E+00 0.73737985732E+00
 0.78377580075E+00 0.82694268745E+00 0.86517913892E+00 0.89689602656E+00 0.92069332879E+00
 0.93545501069E+00 0.94045519072E+00 0.93544193046E+00 0.92066584897E+00 0.89684815908E+00
 0.86510448524E+00 0.82684469239E+00 0.78366906250E+00 0.73727944356E+00 0.68940863659E+00
 0.64175219355E+00 0.59588957390E+00 0.55320361173E+00 0.51481897615E+00 0.48157229116E+00
 0.45401726868E+00 0.43246504955E+00 0.41705143843E+00 0.40781057574E+00 0.40473545325E+00
 0.39858305496E+00 0.40473905257E+00 0.41706504332E+00 0.43556382890E+00 0.46016301003E+00
 0.49064144372E+00 0.52655932404E+00 0.56720616468E+00 0.61157936682E+00 0.65840113848E+00
 0.70617051007E+00 0.75323766120E+00 0.79788629891E+00 0.83841328490E+00 0.87320043401E+00
 0.90078353079E+00 0.91993187353E+00 0.92974350098E+00 0.92973786335E+00 0.91991300534E+00
 0.90074540677E+00 0.87313568809E+00 0.83832067519E+00 0.79777573319E+00 0.75312572815E+00
 0.70607072187E+00 0.65831836462E+00 0.61151104695E+00 0.56714659206E+00 0.52650428952E+00
 0.49059145103E+00 0.46012213622E+00 0.43553481563E+00 0.41704661845E+00 0.40472854565E+00
 0.39857951232E+00 0.40554451209E+00 0.40882033800E+00 0.41863926841E+00 0.43498087106E+00
 0.45777105017E+00 0.48682876678E+00 0.52180271586E+00 0.56210986241E+00 0.60689087507E+00
 0.65499566001E+00 0.70500464251E+00 0.75528198498E+00 0.80405017597E+00 0.84947379201E+00
 0.88974421496E+00 0.92316509375E+00 0.94824502147E+00 0.96380176408E+00 0.96906900280E+00
 0.96378049322E+00 0.94820271631E+00 0.92310285858E+00 0.88966471595E+00 0.84938155398E+00
 0.80395131210E+00 0.75518319557E+00 0.70491161067E+00 0.65491174641E+00 0.60681713106E+00
 0.56204622682E+00 0.52174917274E+00 0.48678559087E+00 0.45773837446E+00 0.43495823733E+00
 0.41862552549E+00 0.40881400221E+00 0.40881435830E+00 0.40881717463E+00 0.41585332750E+00
 0.42988675408E+00 0.45082817444E+00 0.47850467515E+00 0.51261246018E+00 0.55265737537E+00
 0.59789742255E+00 0.64730342833E+00 0.69954966292E+00 0.75304056313E+00 0.80597134417E+00
 0.85641027571E+00 0.90238869512E+00 0.94199506347E+00 0.97347899609E+00 0.99536819645E+00
 0.10065895206E+01 0.10065747279E+01 0.99532539015E+00 0.97341420364E+00 0.94191854227E+00
 0.90230927343E+00 0.85632993967E+00 0.80588716574E+00 0.75295111756E+00 0.69945818700E+00
 0.64721623153E+00 0.59782109254E+00 0.55259619273E+00 0.51256635793E+00 0.47847014966E+00
 0.45080222956E+00 0.42986899716E+00 0.41584377848E+00 0.41862664750E+00 0.41487049529E+00
 0.41863285913E+00 0.42988414541E+00 0.44852753077E+00 0.47438870157E+00 0.50719218015E+00
 0.54651649285E+00 0.59173475948E+00 0.64195651544E+00 0.69598621487E+00 0.75231372890E+00
 0.80914891935E+00 0.86449628711E+00 0.91624973403E+00 0.96229334963E+00 0.10006129169E+01
 0.10294256346E+01 0.10473195462E+01 0.10533820079E+01 0.10472953233E+01 0.10293767934E+01
 0.10005447883E+01 0.96221625649E+00 0.91617016464E+00 0.86441346662E+00 0.80906123242E+00
 0.75222401479E+00 0.69589976228E+00 0.64187816452E+00 0.59166882547E+00 0.54646527805E+00
 0.50715346009E+00 0.47435814593E+00 0.44850400693E+00 0.42986939333E+00 0.43495956432E+00
 0.42699757888E+00 0.42700004924E+00 0.43496995470E+00 0.45082308631E+00 0.47438785568E+00
 0.50540442121E+00 0.54350353105E+00 0.58815760802E+00 0.63861586427E+00 0.69383942677E+00
 0.75245324912E+00 0.81273870218E+00 0.87268332818E+00 0.93007545095E+00 0.98261598404E+00
 0.10280383679E+01 0.10642469591E+01 0.10894731189E+01 0.11024273472E+01 0.11024235193E+01
 0.10894560530E+01 0.10642078824E+01 0.10279762398E+01 0.98253594400E+00 0.92998277725E+00
 0.87258506272E+00 0.81264557778E+00 0.75237281011E+00 0.69377046063E+00 0.63855437345E+00
 0.58810391176E+00 0.54345911336E+00 0.50536734896E+00 0.47435685903E+00 0.45080133883E+00
 0.45773837446E+00 0.44520305413E+00 0.44100780483E+00 0.44520736636E+00 0.45775404539E+00
 0.47849577153E+00 0.50718903585E+00 0.54350308277E+00 0.58698996852E+00 0.63702378515E+00
 0.69272677677E+00 0.75289494737E+00 0.81594463997E+00 0.87991573550E+00 0.94254598812E+00
 0.10013899601E+01 0.10539520455E+01 0.10978339829E+01 0.11309052775E+01 0.11514794785E+01
 0.11584663706E+01 0.11514813111E+01 0.11308947659E+01 0.10977989941E+01 0.10538905006E+01
 0.10013050001E+01 0.94244571210E+00 0.87981693884E+00 0.81586363483E+00 0.75283240274E+00
 0.69267107403E+00 0.63696891005E+00 0.58693994817E+00 0.54346060349E+00 0.50715233807E+00
 0.47846697644E+00 0.48678263818E+00 0.46942188326E+00 0.46068560505E+00 0.46068604086E+00
 0.46942949147E+00 0.48680457891E+00 0.51259514097E+00 0.54650525287E+00 0.58815424891E+00
 0.63702603789E+00 0.69239335730E+00 0.75323328951E+00 0.81814291011E+00 0.88528977488E+00
 0.95244125054E+00 0.10170710487E+01 0.10765013999E+01 0.11280601878E+01 0.11692635429E+01
 0.11980168818E+01 0.12127985025E+01 0.12127998099E+01 0.11980126885E+01 0.11692417342E+01
 0.11280190750E+01 0.10764434275E+01 0.10169954833E+01 0.95235426550E+00 0.88520878910E+00
 0.81807823084E+00 0.75317631374E+00 0.69233379791E+00 0.63696877449E+00 0.58810811130E+00
 0.54646819065E+00 0.51256304911E+00 0.52174324242E+00 0.49944923225E+00 0.48596302177E+00
 0.48144648992E+00 0.48596473679E+00 0.49946430316E+00 0.52177157571E+00 0.55262691027E+00
 0.59170946435E+00 0.63860517610E+00 0.69272946048E+00 0.75323761778E+00 0.81892854894E+00
 0.88815566592E+00 0.95879951433E+00 0.10283388601E+01 0.10939892955E+01 0.11528649202E+01
 0.12021648507E+01 0.12393936180E+01 0.12625807930E+01 0.12704566517E+01 0.12625746933E+01
 0.12393715531E+01 0.12021282413E+01 0.11528250432E+01 0.10939452771E+01 0.10282800709E+01
 0.95872919658E+00 0.88808893380E+00 0.81886776298E+00 0.75317340109E+00 0.69266514373E+00
 0.63855566039E+00 0.59167587777E+00 0.55259658885E+00 0.56204046495E+00 0.53487165243E+00
 0.51659218993E+00 0.50739544474E+00 0.50739465942E+00 0.51660083320E+00 0.53489952016E+00
 0.56207360684E+00 0.59785302413E+00 0.64191552004E+00 0.69381555834E+00 0.75288644198E+00
 0.81813962011E+00 0.88815431572E+00 0.96099629730E+00 0.10342363097E+01 0.11050712578E+01
 0.11704865159E+01 0.12274357913E+01 0.12730642492E+01 0.13049604948E+01 0.13213747954E+01
 0.13213752932E+01 0.13049512289E+01 0.12730355221E+01 0.12274008080E+01 0.11704570980E+01
 0.11050345639E+01 0.10341791726E+01 0.96093042150E+00 0.88809473569E+00 0.81808112005E+00
 0.75282382376E+00 0.69376337187E+00 0.64188396645E+00 0.59782729055E+00 0.60681713096E+00
 0.57501257826E+00 0.55208368774E+00 0.53823183021E+00 0.53359354632E+00 0.53823289637E+00
 0.55210615851E+00 0.57505370308E+00 0.60685149075E+00 0.64725108359E+00 0.69593440872E+00
 0.75241070064E+00 0.81590978695E+00 0.88526531572E+00 0.95879234169E+00 0.10342398992E+01
 0.11088750209E+01 0.11796446952E+01 0.12433501412E+01 0.12968541026E+01 0.13373464984E+01
 0.13626081207E+01 0.13712050512E+01 0.13626227467E+01 0.13373475084E+01 0.12968338131E+01
 0.12433265492E+01 0.11796185570E+01 0.11088273542E+01 0.10341741592E+01 0.95873512696E+00
 0.88522251699E+00 0.81586363472E+00 0.75236070789E+00 0.69589864035E+00 0.64722665064E+00
 0.65492125967E+00 0.61890533945E+00 0.59166701045E+00 0.57339209744E+00 0.56420969050E+00