   6   6   0   0
  0.2185851E+02  0.3190316E-09  0.3190316E-09  0.1487900E-08  0.5000000E-15
  1.000000000000000E-004
  CAR 
 unknown system                          
      8.49459355    -12.92962204  301      3.29922127      1.00000000
    -12.930  0.0000E+00  0.0000E+00
    -12.858  0.0000E+00  0.0000E+00
    -12.787  0.0000E+00  0.0000E+00
    -12.715  0.0000E+00  0.0000E+00
    -12.644  0.0000E+00  0.0000E+00
    -12.573  0.0000E+00  0.0000E+00
    -12.501  0.0000E+00  0.0000E+00
    -12.430  0.0000E+00  0.0000E+00
    -12.358  0.0000E+00  0.0000E+00
    -12.287  0.0000E+00  0.0000E+00
    -12.215  0.0000E+00  0.0000E+00
    -12.144  0.0000E+00  0.0000E+00
    -12.073  0.0000E+00  0.0000E+00
    -12.001  0.0000E+00  0.0000E+00
    -11.930  0.0000E+00  0.0000E+00
    -11.858  0.0000E+00  0.0000E+00
    -11.787  0.0000E+00  0.0000E+00
    -11.716  0.0000E+00  0.0000E+00
    -11.644  0.0000E+00  0.0000E+00
    -11.573  0.0000E+00  0.0000E+00
    -11.501  0.0000E+00  0.0000E+00
    -11.430  0.0000E+00  0.0000E+00
    -11.359  0.0000E+00  0.0000E+00
    -11.287  0.0000E+00  0.0000E+00
    -11.216  0.0000E+00  0.0000E+00
    -11.144  0.0000E+00  0.0000E+00
    -11.073  0.0000E+00  0.0000E+00
    -11.001  0.0000E+00  0.0000E+00
    -10.930  0.0000E+00  0.0000E+00
    -10.859  0.9342E+00  0.5365E-01
    -10.787  0.1143E+01  0.1290E+00
    -10.716  0.1061E+01  0.2049E+00
    -10.644  0.1159E+01  0.2841E+00
    -10.573  0.1117E+01  0.3646E+00
    -10.502  0.1159E+01  0.4455E+00
    -10.430  0.1213E+01  0.5303E+00
    -10.359  0.1209E+01  0.6162E+00
    -10.287  0.1245E+01  0.7038E+00
    -10.216  0.1294E+01  0.7944E+00
    -10.144  0.1328E+01  0.8882E+00
    -10.073  0.1370E+01  0.9844E+00
    -10.002  0.1419E+01  0.1084E+01
     -9.930  0.1470E+01  0.1187E+01
     -9.859  0.1549E+01  0.1295E+01
     -9.787  0.1622E+01  0.1408E+01
     -9.716  0.2263E+01  0.1529E+01
     -9.645  0.4047E+01  0.1788E+01
     -9.573  0.4337E+01  0.2085E+01
     -9.502  0.4582E+01  0.2400E+01
     -9.430  0.4845E+01  0.2737E+01
     -9.359  0.5380E+01  0.3099E+01
     -9.288  0.6044E+01  0.3506E+01
     -9.216  0.6969E+01  0.3968E+01
     -9.145  0.9752E+01  0.4531E+01
     -9.073  0.7954E+01  0.5212E+01
     -9.002  0.8878E+01  0.5797E+01
     -8.930  0.1015E+02  0.6445E+01
     -8.859  0.8170E+01  0.7246E+01
     -8.788  0.6072E+01  0.7702E+01
     -8.716  0.0000E+00  0.8000E+01
     -8.645  0.0000E+00  0.8000E+01
     -8.573  0.0000E+00  0.8000E+01
     -8.502  0.0000E+00  0.8000E+01
     -8.431  0.0000E+00  0.8000E+01
     -8.359  0.0000E+00  0.8000E+01
     -8.288  0.0000E+00  0.8000E+01
     -8.216  0.0000E+00  0.8000E+01
     -8.145  0.0000E+00  0.8000E+01
     -8.073  0.0000E+00  0.8000E+01
     -8.002  0.0000E+00  0.8000E+01
     -7.931  0.0000E+00  0.8000E+01
     -7.859  0.0000E+00  0.8000E+01
     -7.788  0.0000E+00  0.8000E+01
     -7.716  0.0000E+00  0.8000E+01
     -7.645  0.0000E+00  0.8000E+01
     -7.574  0.0000E+00  0.8000E+01
     -7.502  0.0000E+00  0.8000E+01
     -7.431  0.0000E+00  0.8000E+01
     -7.359  0.0000E+00  0.8000E+01
     -7.288  0.0000E+00  0.8000E+01
     -7.216  0.0000E+00  0.8000E+01
     -7.145  0.0000E+00  0.8000E+01
     -7.074  0.0000E+00  0.8000E+01
     -7.002  0.0000E+00  0.8000E+01
     -6.931  0.0000E+00  0.8000E+01
     -6.859  0.0000E+00  0.8000E+01
     -6.788  0.0000E+00  0.8000E+01
     -6.717  0.0000E+00  0.8000E+01
     -6.645  0.0000E+00  0.8000E+01
     -6.574  0.0000E+00  0.8000E+01
     -6.502  0.0000E+00  0.8000E+01
     -6.431  0.0000E+00  0.8000E+01
     -6.360  0.0000E+00  0.8000E+01
     -6.288  0.0000E+00  0.8000E+01
     -6.217  0.0000E+00  0.8000E+01
     -6.145  0.0000E+00  0.8000E+01
     -6.074  0.0000E+00  0.8000E+01
     -6.002  0.0000E+00  0.8000E+01
     -5.931  0.0000E+00  0.8000E+01
     -5.860  0.0000E+00  0.8000E+01
     -5.788  0.0000E+00  0.8000E+01
     -5.717  0.0000E+00  0.8000E+01
     -5.645  0.0000E+00  0.8000E+01
     -5.574  0.0000E+00  0.8000E+01
     -5.503  0.0000E+00  0.8000E+01
     -5.431  0.0000E+00  0.8000E+01
     -5.360  0.0000E+00  0.8000E+01
     -5.288  0.0000E+00  0.8000E+01
     -5.217  0.0000E+00  0.8000E+01
     -5.145  0.0000E+00  0.8000E+01
     -5.074  0.0000E+00  0.8000E+01
     -5.003  0.0000E+00  0.8000E+01
     -4.931  0.0000E+00  0.8000E+01
     -4.860  0.0000E+00  0.8000E+01
     -4.788  0.0000E+00  0.8000E+01
     -4.717  0.0000E+00  0.8000E+01
     -4.646  0.0000E+00  0.8000E+01
     -4.574  0.0000E+00  0.8000E+01
     -4.503  0.0000E+00  0.8000E+01
     -4.431  0.0000E+00  0.8000E+01
     -4.360  0.0000E+00  0.8000E+01
     -4.289  0.0000E+00  0.8000E+01
     -4.217  0.0000E+00  0.8000E+01
     -4.146  0.0000E+00  0.8000E+01
     -4.074  0.0000E+00  0.8000E+01
     -4.003  0.0000E+00  0.8000E+01
     -3.931  0.0000E+00  0.8000E+01
     -3.860  0.0000E+00  0.8000E+01
     -3.789  0.0000E+00  0.8000E+01
     -3.717  0.0000E+00  0.8000E+01
     -3.646  0.0000E+00  0.8000E+01
     -3.574  0.0000E+00  0.8000E+01
     -3.503  0.0000E+00  0.8000E+01
     -3.432  0.0000E+00  0.8000E+01
     -3.360  0.0000E+00  0.8000E+01
     -3.289  0.0000E+00  0.8000E+01
     -3.217  0.0000E+00  0.8000E+01
     -3.146  0.0000E+00  0.8000E+01
     -3.074  0.0000E+00  0.8000E+01
     -3.003  0.0000E+00  0.8000E+01
     -2.932  0.0000E+00  0.8000E+01
     -2.860  0.0000E+00  0.8000E+01
     -2.789  0.0000E+00  0.8000E+01
     -2.717  0.0000E+00  0.8000E+01
     -2.646  0.0000E+00  0.8000E+01
     -2.575  0.1308E+01  0.8019E+01
     -2.503  0.2044E+01  0.8171E+01
     -2.432  0.2805E+01  0.8347E+01
     -2.360  0.3198E+01  0.8562E+01
     -2.289  0.3556E+01  0.8806E+01
     -2.218  0.4338E+01  0.9075E+01
     -2.146  0.5979E+01  0.9480E+01
     -2.075  0.6786E+01  0.9936E+01
     -2.003  0.9309E+01  0.1044E+02
     -1.932  0.8654E+01  0.1105E+02
     -1.860  0.9453E+01  0.1172E+02
     -1.789  0.7312E+01  0.1238E+02
     -1.718  0.3488E+01  0.1277E+02
     -1.646  0.5111E+01  0.1305E+02
     -1.575  0.3292E+01  0.1333E+02
     -1.503  0.2525E+01  0.1354E+02
     -1.432  0.2032E+01  0.1370E+02
     -1.361  0.1733E+01  0.1383E+02
     -1.289  0.1615E+01  0.1395E+02
     -1.218  0.1508E+01  0.1406E+02
     -1.146  0.1436E+01  0.1417E+02
     -1.075  0.1374E+01  0.1427E+02
     -1.003  0.1381E+01  0.1437E+02
     -0.932  0.3686E+01  0.1451E+02
     -0.861  0.7412E+01  0.1492E+02
     -0.789  0.9892E+01  0.1553E+02
     -0.718  0.1133E+02  0.1635E+02
     -0.646  0.1027E+02  0.1711E+02
     -0.575  0.7554E+01  0.1775E+02
     -0.504  0.4505E+01  0.1822E+02
     -0.432  0.2211E+01  0.1840E+02
     -0.361  0.2429E+01  0.1856E+02
     -0.289  0.2541E+01  0.1875E+02
     -0.218  0.2435E+01  0.1892E+02
     -0.147  0.5697E+01  0.1920E+02
     -0.075  0.9496E+01  0.1977E+02
     -0.004  0.1494E+02  0.2089E+02
      0.068  0.6282E+01  0.2154E+02
      0.139  0.5404E+01  0.2194E+02
      0.211  0.5203E+01  0.2246E+02
      0.282  0.3825E+01  0.2277E+02
      0.353  0.3345E+01  0.2302E+02
      0.425  0.3467E+01  0.2325E+02
      0.496  0.2888E+01  0.2348E+02
      0.568  0.4321E+01  0.2371E+02
      0.639  0.3407E+01  0.2397E+02
      0.710  0.2717E+01  0.2417E+02
      0.782  0.4363E+01  0.2441E+02
      0.853  0.4127E+01  0.2478E+02
      0.925  0.1606E+01  0.2497E+02
      0.996  0.2200E+01  0.2509E+02
      1.068  0.7124E+01  0.2540E+02
      1.139  0.6081E+01  0.2593E+02
      1.210  0.7105E+01  0.2645E+02
      1.282  0.1269E+02  0.2710E+02
      1.353  0.9064E+01  0.2790E+02
      1.425  0.6404E+01  0.2842E+02
      1.496  0.6558E+01  0.2887E+02
      1.567  0.3454E+01  0.2921E+02
      1.639  0.3675E+01  0.2944E+02
      1.710  0.5512E+01  0.2980E+02
      1.782  0.4304E+01  0.3017E+02
      1.853  0.4295E+01  0.3047E+02
      1.925  0.4747E+01  0.3079E+02
      1.996  0.5098E+01  0.3116E+02
      2.067  0.4626E+01  0.3151E+02
      2.139  0.2745E+01  0.3176E+02
      2.210  0.4387E+01  0.3200E+02
      2.282  0.5459E+01  0.3236E+02
      2.353  0.6356E+01  0.3294E+02
      2.424  0.6296E+01  0.3339E+02
      2.496  0.5466E+01  0.3380E+02
      2.567  0.5172E+01  0.3418E+02
      2.639  0.4708E+01  0.3453E+02
      2.710  0.4061E+01  0.3484E+02
      2.781  0.3532E+01  0.3512E+02
      2.853  0.3176E+01  0.3536E+02
      2.924  0.2822E+01  0.3557E+02
      2.996  0.2232E+01  0.3575E+02
      3.067  0.1280E+01  0.3589E+02
      3.139  0.6008E+00  0.3594E+02
      3.210  0.3813E+00  0.3598E+02
      3.281  0.4823E-01  0.3600E+02
      3.353  0.0000E+00  0.3600E+02
      3.424  0.0000E+00  0.3600E+02
      3.496  0.0000E+00  0.3600E+02
      3.567  0.0000E+00  0.3600E+02
      3.638  0.0000E+00  0.3600E+02
      3.710  0.0000E+00  0.3600E+02
      3.781  0.0000E+00  0.3600E+02
      3.853  0.0000E+00  0.3600E+02
      3.924  0.0000E+00  0.3600E+02
      3.996  0.0000E+00  0.3600E+02
      4.067  0.0000E+00  0.3600E+02
      4.138  0.0000E+00  0.3600E+02
      4.210  0.0000E+00  0.3600E+02
      4.281  0.0000E+00  0.3600E+02
      4.353  0.0000E+00  0.3600E+02
      4.424  0.0000E+00  0.3600E+02
      4.495  0.0000E+00  0.3600E+02
      4.567  0.0000E+00  0.3600E+02
      4.638  0.0000E+00  0.3600E+02
      4.710  0.0000E+00  0.3600E+02
      4.781  0.2487E+00  0.3600E+02
      4.852  0.1039E+01  0.3605E+02
      4.924  0.1069E+01  0.3612E+02
      4.995  0.2792E+01  0.3626E+02
      5.067  0.4289E+01  0.3651E+02
      5.138  0.7394E+01  0.3692E+02
      5.210  0.1029E+02  0.3756E+02
      5.281  0.2320E+02  0.3862E+02
      5.352  0.3057E+01  0.3948E+02
      5.424  0.3531E+01  0.3969E+02
      5.495  0.5792E+01  0.4002E+02
      5.567  0.9343E+01  0.4060E+02
      5.638  0.9889E+01  0.4124E+02
      5.709  0.7324E+01  0.4182E+02
      5.781  0.7166E+01  0.4233E+02
      5.852  0.4522E+01  0.4278E+02
      5.924  0.2709E+01  0.4305E+02
      5.995  0.1996E+01  0.4323E+02
      6.067  0.1697E+01  0.4336E+02
      6.138  0.2737E+01  0.4352E+02
      6.209  0.2609E+01  0.4370E+02
      6.281  0.1313E+01  0.4387E+02
      6.352  0.8515E+00  0.4394E+02
      6.424  0.3847E+00  0.4398E+02
      6.495  0.0000E+00  0.4400E+02
      6.566  0.0000E+00  0.4400E+02
      6.638  0.0000E+00  0.4400E+02
      6.709  0.0000E+00  0.4400E+02
      6.781  0.0000E+00  0.4400E+02
      6.852  0.0000E+00  0.4400E+02
      6.923  0.0000E+00  0.4400E+02
      6.995  0.0000E+00  0.4400E+02
      7.066  0.0000E+00  0.4400E+02
      7.138  0.0000E+00  0.4400E+02
      7.209  0.0000E+00  0.4400E+02
      7.281  0.0000E+00  0.4400E+02
      7.352  0.0000E+00  0.4400E+02
      7.423  0.0000E+00  0.4400E+02
      7.495  0.0000E+00  0.4400E+02
      7.566  0.0000E+00  0.4400E+02
      7.638  0.0000E+00  0.4400E+02
      7.709  0.0000E+00  0.4400E+02
      7.780  0.0000E+00  0.4400E+02
      7.852  0.0000E+00  0.4400E+02
      7.923  0.0000E+00  0.4400E+02
      7.995  0.0000E+00  0.4400E+02
      8.066  0.0000E+00  0.4400E+02
      8.138  0.0000E+00  0.4400E+02
      8.209  0.0000E+00  0.4400E+02
      8.280  0.0000E+00  0.4400E+02
      8.352  0.0000E+00  0.4400E+02
      8.423  0.0000E+00  0.4400E+02
      8.495  0.0000E+00  0.4400E+02
