Automatically generated mesh
     111
Reciprocal lattice
    0.00000000000000    0.00000000000000    0.00000000000000             1
    0.05555555555556   -0.00000000000000    0.00000000000000             6
    0.11111111111111   -0.00000000000000    0.00000000000000             6
    0.16666666666667   -0.00000000000000    0.00000000000000             6
    0.22222222222222    0.00000000000000    0.00000000000000             6
    0.27777777777778    0.00000000000000    0.00000000000000             6
    0.33333333333333    0.00000000000000    0.00000000000000             6
    0.38888888888889    0.00000000000000    0.00000000000000             6
    0.44444444444444    0.00000000000000    0.00000000000000             6
    0.50000000000000    0.00000000000000    0.00000000000000             3
    0.05555555555556    0.05555555555556    0.00000000000000             6
    0.11111111111111    0.05555555555556    0.00000000000000            12
    0.16666666666667    0.05555555555556    0.00000000000000            12
    0.22222222222222    0.05555555555556    0.00000000000000            12
    0.27777777777778    0.05555555555556    0.00000000000000            12
    0.33333333333333    0.05555555555556    0.00000000000000            12
    0.38888888888889    0.05555555555556    0.00000000000000            12
    0.44444444444444    0.05555555555556    0.00000000000000            12
    0.11111111111111    0.11111111111111    0.00000000000000             6
    0.16666666666667    0.11111111111111    0.00000000000000            12
    0.22222222222222    0.11111111111111    0.00000000000000            12
    0.27777777777778    0.11111111111111    0.00000000000000            12
    0.33333333333333    0.11111111111111    0.00000000000000            12
    0.38888888888889    0.11111111111111    0.00000000000000            12
    0.44444444444444    0.11111111111111    0.00000000000000             6
    0.16666666666667    0.16666666666667    0.00000000000000             6
    0.22222222222222    0.16666666666667    0.00000000000000            12
    0.27777777777778    0.16666666666667    0.00000000000000            12
    0.33333333333333    0.16666666666667    0.00000000000000            12
    0.38888888888889    0.16666666666667    0.00000000000000            12
    0.22222222222222    0.22222222222222    0.00000000000000             6
    0.27777777777778    0.22222222222222    0.00000000000000            12
    0.33333333333333    0.22222222222222    0.00000000000000            12
    0.38888888888889    0.22222222222222    0.00000000000000             6
    0.27777777777778    0.27777777777778    0.00000000000000             6
    0.33333333333333    0.27777777777778    0.00000000000000            12
    0.33333333333333    0.33333333333333    0.00000000000000             2
    0.00000000000000    0.00000000000000    0.25000000000000             2
    0.05555555555556   -0.00000000000000    0.25000000000000            12
    0.11111111111111   -0.00000000000000    0.25000000000000            12
    0.16666666666667   -0.00000000000000    0.25000000000000            12
    0.22222222222222    0.00000000000000    0.25000000000000            12
    0.27777777777778    0.00000000000000    0.25000000000000            12
    0.33333333333333    0.00000000000000    0.25000000000000            12
    0.38888888888889    0.00000000000000    0.25000000000000            12
    0.44444444444444    0.00000000000000    0.25000000000000            12
    0.50000000000000    0.00000000000000    0.25000000000000             6
    0.05555555555556    0.05555555555556    0.25000000000000            12
    0.11111111111111    0.05555555555556    0.25000000000000            24
    0.16666666666667    0.05555555555556    0.25000000000000            24
    0.22222222222222    0.05555555555556    0.25000000000000            24
    0.27777777777778    0.05555555555556    0.25000000000000            24
    0.33333333333333    0.05555555555556    0.25000000000000            24
    0.38888888888889    0.05555555555556    0.25000000000000            24
    0.44444444444444    0.05555555555556    0.25000000000000            24
    0.11111111111111    0.11111111111111    0.25000000000000            12
    0.16666666666667    0.11111111111111    0.25000000000000            24
    0.22222222222222    0.11111111111111    0.25000000000000            24
    0.27777777777778    0.11111111111111    0.25000000000000            24
    0.33333333333333    0.11111111111111    0.25000000000000            24
    0.38888888888889    0.11111111111111    0.25000000000000            24
    0.44444444444444    0.11111111111111    0.25000000000000            12
    0.16666666666667    0.16666666666667    0.25000000000000            12
    0.22222222222222    0.16666666666667    0.25000000000000            24
    0.27777777777778    0.16666666666667    0.25000000000000            24
    0.33333333333333    0.16666666666667    0.25000000000000            24
    0.38888888888889    0.16666666666667    0.25000000000000            24
    0.22222222222222    0.22222222222222    0.25000000000000            12
    0.27777777777778    0.22222222222222    0.25000000000000            24
    0.33333333333333    0.22222222222222    0.25000000000000            24
    0.38888888888889    0.22222222222222    0.25000000000000            12
    0.27777777777778    0.27777777777778    0.25000000000000            12
    0.33333333333333    0.27777777777778    0.25000000000000            24
    0.33333333333333    0.33333333333333    0.25000000000000             4
    0.00000000000000    0.00000000000000    0.50000000000000             1
    0.05555555555556   -0.00000000000000    0.50000000000000             6
    0.11111111111111   -0.00000000000000    0.50000000000000             6
    0.16666666666667   -0.00000000000000    0.50000000000000             6
    0.22222222222222    0.00000000000000    0.50000000000000             6
    0.27777777777778    0.00000000000000    0.50000000000000             6
    0.33333333333333    0.00000000000000    0.50000000000000             6
    0.38888888888889    0.00000000000000    0.50000000000000             6
    0.44444444444444    0.00000000000000    0.50000000000000             6
    0.50000000000000    0.00000000000000    0.50000000000000             3
    0.05555555555556    0.05555555555556    0.50000000000000             6
    0.11111111111111    0.05555555555556    0.50000000000000            12
    0.16666666666667    0.05555555555556    0.50000000000000            12
    0.22222222222222    0.05555555555556    0.50000000000000            12
    0.27777777777778    0.05555555555556    0.50000000000000            12
    0.33333333333333    0.05555555555556    0.50000000000000            12
    0.38888888888889    0.05555555555556    0.50000000000000            12
    0.44444444444444    0.05555555555556    0.50000000000000            12
    0.11111111111111    0.11111111111111    0.50000000000000             6
    0.16666666666667    0.11111111111111    0.50000000000000            12
    0.22222222222222    0.11111111111111    0.50000000000000            12
    0.27777777777778    0.11111111111111    0.50000000000000            12
    0.33333333333333    0.11111111111111    0.50000000000000            12
    0.38888888888889    0.11111111111111    0.50000000000000            12
    0.44444444444444    0.11111111111111    0.50000000000000             6
    0.16666666666667    0.16666666666667    0.50000000000000             6
    0.22222222222222    0.16666666666667    0.50000000000000            12
    0.27777777777778    0.16666666666667    0.50000000000000            12
    0.33333333333333    0.16666666666667    0.50000000000000            12
    0.38888888888889    0.16666666666667    0.50000000000000            12
    0.22222222222222    0.22222222222222    0.50000000000000             6
    0.27777777777778    0.22222222222222    0.50000000000000            12
    0.33333333333333    0.22222222222222    0.50000000000000            12
    0.38888888888889    0.22222222222222    0.50000000000000             6
    0.27777777777778    0.27777777777778    0.50000000000000             6
    0.33333333333333    0.27777777777778    0.50000000000000            12
    0.33333333333333    0.33333333333333    0.50000000000000             2
Tetrahedra
      1318    0.00012860082305
         8         2         2        11        39
         8         1         2         2        39
         4         1         2        38        39
         4         2        11        39        48
         8         2        39        39        48
         8         2        38        39        39
         8         3        11        12        48
         8         2         3        11        48
         4         2         3        39        48
         4         3        12        48        49
         8         3        40        48        49
         8         3        39        40        48
         8         4        12        13        49
         8         3         4        12        49
         4         3         4        40        49
         4         4        13        49        50
         8         4        41        49        50
         8         4        40        41        49
         8         5        13        14        50
         8         4         5        13        50
         4         4         5        41        50
         4         5        14        50        51
         8         5        42        50        51
         8         5        41        42        50
         8         6        14        15        51
         8         5         6        14        51
         4         5         6        42        51
         4         6        15        51        52
         8         6        43        51        52
         8         6        42        43        51
         8         7        15        16        52
         8         6         7        15        52
         4         6         7        43        52
         4         7        16        52        53
         8         7        44        52        53
         8         7        43        44        52
         8         8        16        17        53
         8         7         8        16        53
         4         7         8        44        53
         4         8        17        53        54
         8         8        45        53        54
         8         8        44        45        53
         8         9        17        18        54
         8         8         9        17        54
         4         8         9        45        54
         4         9        18        54        55
         8         9        46        54        55
         8         9        45        46        54
         8        10        18        18        55
         8         9        10        18        55
         4         9        10        46        55
         4        10        18        55        55
         4        10        47        55        55
         8        10        46        47        55
         8         9        17        18        55
         4         9        10        47        55
         4         9        17        54        55
         8         9        46        47        55
         8         8        16        17        54
         4         8         9        46        54
         4         8        16        53        54
         8         8        45        46        54
         8         7        15        16        53
         4         7         8        45        53
         4         7        15        52        53
         8         7        44        45        53
         8         6        14        15        52
         4         6         7        44        52
         4         6        14        51        52
         8         6        43        44        52
         8         5        13        14        51
         4         5         6        43        51
         4         5        13        50        51
         8         5        42        43        51
         8         4        12        13        50
         4         4         5        42        50
         4         4        12        49        50
         8         4        41        42        50
         8         3        11        12        49
         4         3         4        41        49
         4         3        11        48        49
         8         3        40        41        49
         4         2         2        11        48
         4         2         3        40        48
         4         2         2        39        48
         8         2        39        40        48
         4         1         2        39        39
         4         1        38        39        39
         8         3        11        12        40
         8         2         3        11        40
         4         2        11        39        40
         4        11        12        40        49
         8        11        40        48        49
         8        11        39        40        48
         8        12        12        19        49
         8        11        12        12        49
         4        11        12        48        49
         4        12        19        49        56
         8        12        49        49        56
         8        12        48        49        49
         8        13        19        20        56
         8        12        13        19        56
         4        12        13        49        56
         4        13        20        56        57
         8        13        50        56        57
         8        13        49        50        56
         8        14        20        21        57
         8        13        14        20        57
         4        13        14        50        57
         4        14        21        57        58
         8        14        51        57        58
         8        14        50        51        57
         8        15        21        22        58
         8        14        15        21        58
         4        14        15        51        58
         4        15        22        58        59
         8        15        52        58        59
         8        15        51        52        58
         8        16        22        23        59
         8        15        16        22        59
         4        15        16        52        59
         4        16        23        59        60
         8        16        53        59        60
         8        16        52        53        59
         8        17        23        24        60
         8        16        17        23        60
         4        16        17        53        60
         4        17        24        60        61
         8        17        54        60        61
         8        17        53        54        60
         8        18        24        25        61
         8        17        18        24        61
         4        17        18        54        61
         4        18        25        61        62
         8        18        55        61        62
         8        18        54        55        61
         8        18        24        25        62
         4        18        18        25        62
         4        18        18        55        62
         4        18        24        61        62
         8        18        55        55        62
         8        17        23        24        61
         4        17        18        55        61
         4        17        23        60        61
         8        17        54        55        61
         8        16        22        23        60
         4        16        17        54        60
         4        16        22        59        60
         8        16        53        54        60
         8        15        21        22        59
         4        15        16        53        59
         4        15        21        58        59
         8        15        52        53        59
         8        14        20        21        58
         4        14        15        52        58
         4        14        20        57        58
         8        14        51        52        58
         8        13        19        20        57
         4        13        14        51        57
         4        13        19        56        57
         8        13        50        51        57
         4        12        12        19        56
         4        12        13        50        56
         4        12        12        49        56
         8        12        49        50        56
         4        11        12        49        49
         4         3        11        40        49
         4        11        48        49        49
         4         2        11        40        48
         8         4        12        13        41
         8         3         4        12        41
         4         3        12        40        41
         4        12        13        41        50
         8        12        41        49        50
         8        12        40        41        49
         8        13        19        20        50
         8        12        13        19        50
         4        12        19        49        50
         4        19        20        50        57
         8        19        50        56        57
         8        19        49        50        56
         8        20        20        26        57
         8        19        20        20        57
         4        19        20        56        57
         4        20        26        57        63
         8        20        57        57        63
         8        20        56        57        57
         8        21        26        27        63
         8        20        21        26        63
         4        20        21        57        63
         4        21        27        63        64
         8        21        58        63        64
         8        21        57        58        63
         8        22        27        28        64
         8        21        22        27        64
         4        21        22        58        64
         4        22        28        64        65
         8        22        59        64        65
         8        22        58        59        64
         8        23        28        29        65
         8        22        23        28        65
         4        22        23        59        65
         4        23        29        65        66
         8        23        60        65        66
         8        23        59        60        65
         8        24        29        30        66
         8        23        24        29        66
         4        23        24        60        66
         4        24        30        66        67
         8        24        61        66        67
         8        24        60        61        66
         8        25        30        30        67
         8        24        25        30        67
         4        24        25        61        67
         4        25        30        67        67
         4        25        62        67        67
         8        25        61        62        67
         8        24        29        30        67
         4        24        25        62        67
         4        24        29        66        67
         8        24        61        62        67
         8        23        28        29        66
         4        23        24        61        66
         4        23        28        65        66
         8        23        60        61        66
         8        22        27        28        65
         4        22        23        60        65
         4        22        27        64        65
         8        22        59        60        65
         8        21        26        27        64
         4        21        22        59        64
         4        21        26        63        64
         8        21        58        59        64
         4        20        20        26        63
         4        20        21        58        63
         4        20        20        57        63
         8        20        57        58        63
         4        19        20        57        57
         4        13        19        50        57
         4        19        56        57        57
         4        12        19        50        56
         4         4        12        41        50
         4         3        12        41        49
         8         5        13        14        42
         8         4         5        13        42
         4         4        13        41        42
         4        13        14        42        51
         8        13        42        50        51
         8        13        41        42        50
         8        14        20        21        51
         8        13        14        20        51
         4        13        20        50        51
         4        20        21        51        58
         8        20        51        57        58
         8        20        50        51        57
         8        21        26        27        58
         8        20        21        26        58
         4        20        26        57        58
         4        26        27        58        64
         8        26        58        63        64
         8        26        57        58        63
         8        27        27        31        64
         8        26        27        27        64
         4        26        27        63        64
         4        27        31        64        68
         8        27        64        64        68
         8        27        63        64        64
         8        28        31        32        68
         8        27        28        31        68
         4        27        28        64        68
         4        28        32        68        69
         8        28        65        68        69
         8        28        64        65        68
         8        29        32        33        69
         8        28        29        32        69
         4        28        29        65        69
         4        29        33        69        70
         8        29        66        69        70
         8        29        65        66        69
         8        30        33        34        70
         8        29        30        33        70
         4        29        30        66        70
         4        30        34        70        71
         8        30        67        70        71
         8        30        66        67        70
         8        30        33        34        71
         4        30        30        34        71
         4        30        30        67        71
         4        30        33        70        71
         8        30        67        67        71
         8        29        32        33        70
         4        29        30        67        70
         4        29        32        69        70
         8        29        66        67        70
         8        28        31        32        69
         4        28        29        66        69
         4        28        31        68        69
         8        28        65        66        69
         4        27        27        31        68
         4        27        28        65        68
         4        27        27        64        68
         8        27        64        65        68
         4        26        27        64        64
         4        21        26        58        64
         4        26        63        64        64
         4        20        26        58        63
         4        14        20        51        58
         4        13        20        51        57
         4         5        13        42        51
         4         4        13        42        50
         8         6        14        15        43
         8         5         6        14        43
         4         5        14        42        43
         4        14        15        43        52
         8        14        43        51        52
         8        14        42        43        51
         8        15        21        22        52
         8        14        15        21        52
         4        14        21        51        52
         4        21        22        52        59
         8        21        52        58        59
         8        21        51        52        58
         8        22        27        28        59
         8        21        22        27        59
         4        21        27        58        59
         4        27        28        59        65
         8        27        59        64        65
         8        27        58        59        64
         8        28        31        32        65
         8        27        28        31        65
         4        27        31        64        65
         4        31        32        65        69
         8        31        65        68        69
         8        31        64        65        68
         8        32        32        35        69
         8        31        32        32        69
         4        31        32        68        69
         4        32        35        69        72
         8        32        69        69        72
         8        32        68        69        69
         8        33        35        36        72
         8        32        33        35        72
         4        32        33        69        72
         4        33        36        72        73
         8        33        70        72        73
         8        33        69        70        72
         8        34        36        36        73
         8        33        34        36        73
         4        33        34        70        73
         4        34        36        73        73
         4        34        71        73        73
         8        34        70        71        73
         8        33        35        36        73
         4        33        34        71        73
         4        33        35        72        73
         8        33        70        71        73
         4        32        32        35        72
         4        32        33        70        72
         4        32        32        69        72
         8        32        69        70        72
         4        31        32        69        69
         4        28        31        65        69
         4        31        68        69        69
         4        27        31        65        68
         4        22        27        59        65
         4        21        27        59        64
         4        15        21        52        59
         4        14        21        52        58
         4         6        14        43        52
         4         5        14        43        51
         8         7        15        16        44
         8         6         7        15        44
         4         6        15        43        44
         4        15        16        44        53
         8        15        44        52        53
         8        15        43        44        52
         8        16        22        23        53
         8        15        16        22        53
         4        15        22        52        53
         4        22        23        53        60
         8        22        53        59        60
         8        22        52        53        59
         8        23        28        29        60
         8        22        23        28        60
         4        22        28        59        60
         4        28        29        60        66
         8        28        60        65        66
         8        28        59        60        65
         8        29        32        33        66
         8        28        29        32        66
         4        28        32        65        66
         4        32        33        66        70
         8        32        66        69        70
         8        32        65        66        69
         8        33        35        36        70
         8        32        33        35        70
         4        32        35        69        70
         4        35        36        70        73
         8        35        70        72        73
         8        35        69        70        72
        16        36        36        37        73
         8        35        36        36        73
         4        35        36        72        73
         8        36        37        73        74
        16        36        73        73        74
         8        36        72        73        73
         8        36        36        37        74
         8        36        36        73        74
         4        35        36        73        73
         4        33        35        70        73
         4        35        72        73        73
         4        32        35        70        72
         4        29        32        66        70
         4        28        32        66        69
         4        23        28        60        66
         4        22        28        60        65
         4        16        22        53        60
         4        15        22        53        59
         4         7        15        44        53
         4         6        15        44        52
         8         8        16        17        45
         8         7         8        16        45
         4         7        16        44        45