       N       E                     dE             d eps       ncg     rms          rms(c)
DAV:   1     0.198472313910E+03    0.19847E+03   -0.14677E+04  4884   0.126E+03
DAV:   2    -0.288962963731E+02   -0.22737E+03   -0.22167E+03  6730   0.263E+02
DAV:   3    -0.462895718598E+02   -0.17393E+02   -0.17312E+02  6414   0.739E+01
DAV:   4    -0.468068729551E+02   -0.51730E+00   -0.51644E+00  6828   0.134E+01
DAV:   5    -0.468203448457E+02   -0.13472E-01   -0.13467E-01  6540   0.212E+00    0.973E+00
RMM:   6    -0.444301399379E+02    0.23902E+01   -0.24302E+01  5454   0.195E+01    0.336E+00
RMM:   7    -0.436953221097E+02    0.73482E+00   -0.19239E+00  5371   0.558E+00    0.178E+00
RMM:   8    -0.436318771318E+02    0.63445E-01   -0.90053E-01  5582   0.336E+00    0.832E-01
RMM:   9    -0.436218033714E+02    0.10074E-01   -0.29729E-01  5753   0.226E+00    0.574E-01
RMM:  10    -0.436054584677E+02    0.16345E-01   -0.64946E-02  5806   0.110E+00    0.717E-02
RMM:  11    -0.436055987707E+02   -0.14030E-03   -0.33015E-03  6273   0.226E-01    0.296E-02
RMM:  12    -0.436057346433E+02   -0.13587E-03   -0.48016E-04  6169   0.104E-01    0.149E-02
RMM:  13    -0.436057482968E+02   -0.13653E-04   -0.23986E-04  6377   0.601E-02    0.174E-02
RMM:  14    -0.436057369742E+02    0.11323E-04   -0.54940E-05  4678   0.331E-02    0.286E-03
RMM:  15    -0.436057375016E+02   -0.52740E-06   -0.11024E-05  3747   0.151E-02
   1 F= -.44937025E+02 E0= -.44937025E+02  d E =0.000000E+00
