 vasp.5.4.4.18Apr17-6-g9f103f2a35 (build Jun 30 2017 11:15:00) complex          
  
 executed on    STALLO_VASP_5.4.4 date 2019.11.08  12:19:59
 running on    4 total cores
 distrk:  each k-point on    4 cores,    1 groups
 distr:  one band on NCORES_PER_BAND=   2 cores,    2 groups


--------------------------------------------------------------------------------------------------------


 INCAR:
 POTCAR:   PAW_PBE Mo 08Apr2002                   
 POTCAR:    PAW_PBE S 17Jan2003                   
 POTCAR:   PAW_PBE Mo 08Apr2002                   
   VRHFIN =Mo: 4p5s4d                                                           
   LEXCH  = PE                                                                  
   EATOM  =   217.5180 eV,   15.9871 Ry                                         
                                                                                
   TITEL  = PAW_PBE Mo 08Apr2002                                                
   LULTRA =        F    use ultrasoft PP ?                                      
   IUNSCR =        1    unscreen: 0-lin 1-nonlin 2-no                           
   RPACOR =    2.200    partial core radius                                     
   POMASS =   95.940; ZVAL   =    6.000    mass and valenz                      
   RCORE  =    2.750    outmost cutoff radius                                   
   RWIGS  =    2.750; RWIGS  =    1.455    wigner-seitz radius (au A)           
   ENMAX  =  224.584; ENMIN  =  168.438 eV                                      
   RCLOC  =    2.111    cutoff for local pot                                    
   LCOR   =        T    correct aug charges                                     
   LPAW   =        T    paw PP                                                  
   EAUG   =  345.278                                                            
   DEXC   =    -.088                                                            
   RMAX   =    3.077    core radius for proj-oper                               
   RAUG   =    1.300    factor for augmentation sphere                          
   RDEP   =    2.815    radius for radial grids                                 
   QCUT   =   -4.063; QGAM   =    8.126    optimization parameters              
                                                                                
   Description                                                                  
     l     E      TYP  RCUT    TYP  RCUT                                        
     2   .000     23  2.500                                                     
     2   .000     23  2.500                                                     
     0   .000     23  2.600                                                     
     0  1.000     23  2.600                                                     
     1   .400     23  2.750                                                     
     1  2.000     23  2.750                                                     
     3   .000      7   .000                                                     
  local pseudopotential read in
  partial core-charges read in
  atomic valenz-charges read in
  non local Contribution for L=           2  read in
    real space projection operators read in
  non local Contribution for L=           2  read in
    real space projection operators read in
  non local Contribution for L=           0  read in
    real space projection operators read in
  non local Contribution for L=           0  read in
    real space projection operators read in
  non local Contribution for L=           1  read in
    real space projection operators read in
  non local Contribution for L=           1  read in
    real space projection operators read in
    PAW grid and wavefunctions read in
 
   number of l-projection  operators is LMAX  =           6
   number of lm-projection operators is LMMAX =          18
 
 POTCAR:    PAW_PBE S 17Jan2003                   
   VRHFIN =S : s2p4                                                             
   LEXCH  = PE                                                                  
   EATOM  =   276.8230 eV,   20.3459 Ry                                         
                                                                                
   TITEL  = PAW_PBE S 17Jan2003                                                 
   LULTRA =        F    use ultrasoft PP ?                                      
   IUNSCR =        1    unscreen: 0-lin 1-nonlin 2-no                           
   RPACOR =    1.500    partial core radius                                     
   POMASS =   32.066; ZVAL   =    6.000    mass and valenz                      
   RCORE  =    1.900    outmost cutoff radius                                   
   RWIGS  =    2.200; RWIGS  =    1.164    wigner-seitz radius (au A)           
   ENMAX  =  280.000; ENMIN  =  194.016 eV                                      
   ICORE  =        2    local potential                                         
   LCOR   =        T    correct aug charges                                     
   LPAW   =        T    paw PP                                                  
   EAUG   =  335.092                                                            
   DEXC   =     .000                                                            
   RMAX   =    2.867    core radius for proj-oper                               
   RAUG   =    1.300    factor for augmentation sphere                          
   RDEP   =    1.954    radius for radial grids                                 
   QCUT   =   -4.360; QGAM   =    8.721    optimization parameters              
                                                                                
   Description                                                                  
     l     E      TYP  RCUT    TYP  RCUT                                        
     0   .000     23  1.900                                                     
     0   .000     23  1.900                                                     
     1   .000     23  1.900                                                     
     1   .000     23  1.900                                                     
     2   .000     23  1.900                                                     
  local pseudopotential read in
  partial core-charges read in
  atomic valenz-charges read in
  non local Contribution for L=           0  read in
    real space projection operators read in
  non local Contribution for L=           0  read in
    real space projection operators read in
  non local Contribution for L=           1  read in
    real space projection operators read in
  non local Contribution for L=           1  read in
    real space projection operators read in
    PAW grid and wavefunctions read in
 
   number of l-projection  operators is LMAX  =           4
   number of lm-projection operators is LMMAX =           8
 
 PAW_PBE Mo 08Apr2002                   :
 energy of atom  1       EATOM= -217.5180
 kinetic energy error for atom=    0.0023 (will be added to EATOM!!)
  PAW_PBE S 17Jan2003                   :
 energy of atom  2       EATOM= -276.8230
 kinetic energy error for atom=    0.0033 (will be added to EATOM!!)
 
 
 POSCAR: MoS2_mp-2815_computed                   
  positions in direct lattice
  No initial velocities read in
 exchange correlation table for  LEXCH =        8
   RHO(1)=    0.500       N(1)  =     2000
   RHO(2)=  100.500       N(2)  =     4000
 


--------------------------------------------------------------------------------------------------------


 ion  position               nearest neighbor table
   1  0.333  0.667  0.250-   5 2.42   4 2.42   4 2.42   5 2.42   5 2.42   4 2.42
   2  0.667  0.333  0.750-   6 2.42   3 2.42   3 2.42   6 2.42   6 2.42   3 2.42
   3  0.333  0.667  0.855-   2 2.42   2 2.42   2 2.42
   4  0.667  0.333  0.145-   1 2.42   1 2.42   1 2.42
   5  0.667  0.333  0.355-   1 2.42   1 2.42   1 2.42
   6  0.333  0.667  0.645-   2 2.42   2 2.42   2 2.42
 
  LATTYP: Found a hexagonal cell.
 ALAT       =     3.1903157300
 C/A-ratio  =     4.6638030713
  
  Lattice vectors:
  
 A1 = (   3.1903157300,   0.0000000000,   0.0000000000)
 A2 = (  -1.5951578650,   2.7628944683,   0.0000000000)
 A3 = (   0.0000000000,   0.0000000000,  14.8790043000)


Analysis of symmetry for initial positions (statically):
=====================================================================
 Subroutine PRICEL returns:
 Original cell was already a primitive cell.
 

 Routine SETGRP: Setting up the symmetry group for a 
 hexagonal supercell.


 Subroutine GETGRP returns: Found 24 space group operations
 (whereof 12 operations were pure point group operations)
 out of a pool of 24 trial point group operations.


The static configuration has the point symmetry D_3d.
 The point group associated with its full space group is D_6h.


Analysis of symmetry for dynamics (positions and initial velocities):
=====================================================================
 Subroutine PRICEL returns:
 Original cell was already a primitive cell.
 

 Routine SETGRP: Setting up the symmetry group for a 
 hexagonal supercell.


 Subroutine GETGRP returns: Found 24 space group operations
 (whereof 12 operations were pure point group operations)
 out of a pool of 24 trial point group operations.


The dynamic configuration has the point symmetry D_3d.
 The point group associated with its full space group is D_6h.


 Subroutine INISYM returns: Found 24 space group operations
 (whereof 12 operations are pure point group operations),
 and found     1 'primitive' translations

 
 
 KPOINTS: k-density: 9.0                          

Automatic generation of k-mesh.
Space group operators:
 irot       det(A)        alpha          n_x          n_y          n_z        tau_x        tau_y        tau_z
    1     1.000000     0.000001     1.000000     0.000000     0.000000     0.000000     0.000000     0.000000
    2    -1.000000     0.000001     1.000000     0.000000     0.000000     0.000000     0.000000     0.000000
    3     1.000000   120.000000     0.000000     0.000000    -1.000000     0.000000     0.000000     0.000000
    4    -1.000000   120.000000     0.000000     0.000000    -1.000000     0.000000     0.000000     0.000000
    5     1.000000   120.000000     0.000000     0.000000     1.000000     0.000000     0.000000     0.000000
    6    -1.000000   120.000000     0.000000     0.000000     1.000000     0.000000     0.000000     0.000000
    7     1.000000   179.999999     1.000000    -0.000000     0.000000     0.000000     0.000000     0.000000
    8    -1.000000   179.999999     1.000000    -0.000000     0.000000     0.000000     0.000000     0.000000
    9     1.000000   180.000000     0.500000    -0.866025     0.000000     0.000000     0.000000     0.000000
   10    -1.000000   180.000000     0.500000    -0.866025     0.000000     0.000000     0.000000     0.000000
   11     1.000000   180.000000    -0.500000    -0.866025     0.000000     0.000000     0.000000     0.000000
   12    -1.000000   180.000000    -0.500000    -0.866025     0.000000     0.000000     0.000000     0.000000
   13     1.000000    60.000000     0.000000     0.000000    -1.000000     0.000001     0.000000     0.500000
   14    -1.000000    60.000000     0.000000     0.000000    -1.000000     0.000001     0.000000     0.500000
   15     1.000000   180.000000     0.000000     0.000000     1.000000     0.000000     0.000000     0.500000
   16    -1.000000   180.000000     0.000000     0.000000     1.000000     0.000000     0.000000     0.500000
   17     1.000000    60.000000     0.000000     0.000000     1.000000     0.000000     0.000000     0.500000
   18    -1.000000    60.000000     0.000000     0.000000     1.000000     0.000000     0.000000     0.500000
   19     1.000000   179.999999     0.866025    -0.500000     0.000000     0.000000     0.000000     0.500000
   20    -1.000000   179.999999     0.866025    -0.500000     0.000000     0.000000     0.000000     0.500000
   21     1.000000   180.000000     0.000000     1.000000     0.000000     0.000001     0.000000     0.500000
   22    -1.000000   180.000000     0.000000     1.000000     0.000000     0.000001     0.000000     0.500000
   23     1.000000   179.999999     0.866025     0.500000     0.000000     0.000000     0.000000     0.500000
   24    -1.000000   179.999999     0.866025     0.500000     0.000000     0.000000     0.000000     0.500000
 
 Subroutine IBZKPT returns following result:
 ===========================================
 
 Found    111 irreducible k-points:
 
 Following reciprocal coordinates:
            Coordinates               Weight
  0.000000  0.000000  0.000000      1.000000
  0.055556 -0.000000  0.000000      6.000000
  0.111111 -0.000000  0.000000      6.000000
  0.166667 -0.000000  0.000000      6.000000
  0.222222  0.000000  0.000000      6.000000
  0.277778  0.000000  0.000000      6.000000
  0.333333  0.000000  0.000000      6.000000
  0.388889  0.000000  0.000000      6.000000
  0.444444  0.000000  0.000000      6.000000
  0.500000  0.000000  0.000000      3.000000
  0.055556  0.055556  0.000000      6.000000
  0.111111  0.055556  0.000000     12.000000
  0.166667  0.055556  0.000000     12.000000
  0.222222  0.055556  0.000000     12.000000
  0.277778  0.055556  0.000000     12.000000
  0.333333  0.055556  0.000000     12.000000
  0.388889  0.055556  0.000000     12.000000
  0.444444  0.055556  0.000000     12.000000
  0.111111  0.111111  0.000000      6.000000
  0.166667  0.111111  0.000000     12.000000
  0.222222  0.111111  0.000000     12.000000
  0.277778  0.111111  0.000000     12.000000
  0.333333  0.111111  0.000000     12.000000
  0.388889  0.111111  0.000000     12.000000
  0.444444  0.111111  0.000000      6.000000
  0.166667  0.166667  0.000000      6.000000
  0.222222  0.166667  0.000000     12.000000
  0.277778  0.166667  0.000000     12.000000
  0.333333  0.166667  0.000000     12.000000
  0.388889  0.166667  0.000000     12.000000
  0.222222  0.222222  0.000000      6.000000
  0.277778  0.222222  0.000000     12.000000
  0.333333  0.222222  0.000000     12.000000
  0.388889  0.222222  0.000000      6.000000
  0.277778  0.277778  0.000000      6.000000
  0.333333  0.277778  0.000000     12.000000
  0.333333  0.333333  0.000000      2.000000
  0.000000  0.000000  0.250000      2.000000
  0.055556 -0.000000  0.250000     12.000000
  0.111111 -0.000000  0.250000     12.000000
  0.166667 -0.000000  0.250000     12.000000
  0.222222  0.000000  0.250000     12.000000
  0.277778  0.000000  0.250000     12.000000
  0.333333  0.000000  0.250000     12.000000
  0.388889  0.000000  0.250000     12.000000
  0.444444  0.000000  0.250000     12.000000
  0.500000  0.000000  0.250000      6.000000
  0.055556  0.055556  0.250000     12.000000
  0.111111  0.055556  0.250000     24.000000
  0.166667  0.055556  0.250000     24.000000
  0.222222  0.055556  0.250000     24.000000
  0.277778  0.055556  0.250000     24.000000
  0.333333  0.055556  0.250000     24.000000
  0.388889  0.055556  0.250000     24.000000
  0.444444  0.055556  0.250000     24.000000
  0.111111  0.111111  0.250000     12.000000
  0.166667  0.111111  0.250000     24.000000
  0.222222  0.111111  0.250000     24.000000
  0.277778  0.111111  0.250000     24.000000
  0.333333  0.111111  0.250000     24.000000
  0.388889  0.111111  0.250000     24.000000
  0.444444  0.111111  0.250000     12.000000
  0.166667  0.166667  0.250000     12.000000
  0.222222  0.166667  0.250000     24.000000
  0.277778  0.166667  0.250000     24.000000
  0.333333  0.166667  0.250000     24.000000
  0.388889  0.166667  0.250000     24.000000
  0.222222  0.222222  0.250000     12.000000
  0.277778  0.222222  0.250000     24.000000
  0.333333  0.222222  0.250000     24.000000
  0.388889  0.222222  0.250000     12.000000
  0.277778  0.277778  0.250000     12.000000
  0.333333  0.277778  0.250000     24.000000
  0.333333  0.333333  0.250000      4.000000
  0.000000  0.000000  0.500000      1.000000
  0.055556 -0.000000  0.500000      6.000000
  0.111111 -0.000000  0.500000      6.000000
  0.166667 -0.000000  0.500000      6.000000
  0.222222  0.000000  0.500000      6.000000
  0.277778  0.000000  0.500000      6.000000
  0.333333  0.000000  0.500000      6.000000
  0.388889  0.000000  0.500000      6.000000
  0.444444  0.000000  0.500000      6.000000
  0.500000  0.000000  0.500000      3.000000
  0.055556  0.055556  0.500000      6.000000
  0.111111  0.055556  0.500000     12.000000
  0.166667  0.055556  0.500000     12.000000
  0.222222  0.055556  0.500000     12.000000
  0.277778  0.055556  0.500000     12.000000
  0.333333  0.055556  0.500000     12.000000
  0.388889  0.055556  0.500000     12.000000
  0.444444  0.055556  0.500000     12.000000
  0.111111  0.111111  0.500000      6.000000
  0.166667  0.111111  0.500000     12.000000
  0.222222  0.111111  0.500000     12.000000
  0.277778  0.111111  0.500000     12.000000
  0.333333  0.111111  0.500000     12.000000
  0.388889  0.111111  0.500000     12.000000
  0.444444  0.111111  0.500000      6.000000
  0.166667  0.166667  0.500000      6.000000
  0.222222  0.166667  0.500000     12.000000
  0.277778  0.166667  0.500000     12.000000
  0.333333  0.166667  0.500000     12.000000
  0.388889  0.166667  0.500000     12.000000
  0.222222  0.222222  0.500000      6.000000
  0.277778  0.222222  0.500000     12.000000
  0.333333  0.222222  0.500000     12.000000
  0.388889  0.222222  0.500000      6.000000
  0.277778  0.277778  0.500000      6.000000
  0.333333  0.277778  0.500000     12.000000
  0.333333  0.333333  0.500000      2.000000
 
 Following cartesian coordinates:
            Coordinates               Weight
  0.000000  0.000000  0.000000      1.000000
  0.017414  0.010054  0.000000      6.000000
  0.034828  0.020108  0.000000      6.000000
  0.052241  0.030162  0.000000      6.000000
  0.069655  0.040215  0.000000      6.000000
  0.087069  0.050269  0.000000      6.000000
  0.104483  0.060323  0.000000      6.000000
  0.121897  0.070377  0.000000      6.000000
  0.139310  0.080431  0.000000      6.000000
  0.156724  0.090485  0.000000      3.000000
  0.017414  0.030162  0.000000      6.000000
  0.034828  0.040215  0.000000     12.000000
  0.052241  0.050269  0.000000     12.000000
  0.069655  0.060323  0.000000     12.000000
  0.087069  0.070377  0.000000     12.000000
  0.104483  0.080431  0.000000     12.000000
  0.121897  0.090485  0.000000     12.000000
  0.139310  0.100539  0.000000     12.000000
  0.034828  0.060323  0.000000      6.000000
  0.052241  0.070377  0.000000     12.000000
  0.069655  0.080431  0.000000     12.000000
  0.087069  0.090485  0.000000     12.000000
  0.104483  0.100539  0.000000     12.000000
  0.121897  0.110593  0.000000     12.000000
  0.139310  0.120646  0.000000      6.000000
  0.052241  0.090485  0.000000      6.000000
  0.069655  0.100539  0.000000     12.000000
  0.087069  0.110593  0.000000     12.000000
  0.104483  0.120646  0.000000     12.000000
  0.121897  0.130700  0.000000     12.000000
  0.069655  0.120646  0.000000      6.000000
  0.087069  0.130700  0.000000     12.000000
  0.104483  0.140754  0.000000     12.000000
  0.121897  0.150808  0.000000      6.000000
  0.087069  0.150808  0.000000      6.000000
  0.104483  0.160862  0.000000     12.000000
  0.104483  0.180970  0.000000      2.000000
  0.000000  0.000000  0.016802      2.000000
  0.017414  0.010054  0.016802     12.000000
  0.034828  0.020108  0.016802     12.000000
  0.052241  0.030162  0.016802     12.000000
  0.069655  0.040215  0.016802     12.000000
  0.087069  0.050269  0.016802     12.000000
  0.104483  0.060323  0.016802     12.000000
  0.121897  0.070377  0.016802     12.000000
  0.139310  0.080431  0.016802     12.000000
  0.156724  0.090485  0.016802      6.000000
  0.017414  0.030162  0.016802     12.000000
  0.034828  0.040215  0.016802     24.000000
  0.052241  0.050269  0.016802     24.000000
  0.069655  0.060323  0.016802     24.000000
  0.087069  0.070377  0.016802     24.000000
  0.104483  0.080431  0.016802     24.000000
  0.121897  0.090485  0.016802     24.000000
  0.139310  0.100539  0.016802     24.000000
  0.034828  0.060323  0.016802     12.000000
  0.052241  0.070377  0.016802     24.000000
  0.069655  0.080431  0.016802     24.000000
  0.087069  0.090485  0.016802     24.000000
  0.104483  0.100539  0.016802     24.000000
  0.121897  0.110593  0.016802     24.000000
  0.139310  0.120646  0.016802     12.000000
  0.052241  0.090485  0.016802     12.000000
  0.069655  0.100539  0.016802     24.000000
  0.087069  0.110593  0.016802     24.000000
  0.104483  0.120646  0.016802     24.000000
  0.121897  0.130700  0.016802     24.000000
  0.069655  0.120646  0.016802     12.000000
  0.087069  0.130700  0.016802     24.000000
  0.104483  0.140754  0.016802     24.000000
  0.121897  0.150808  0.016802     12.000000
  0.087069  0.150808  0.016802     12.000000
  0.104483  0.160862  0.016802     24.000000
  0.104483  0.180970  0.016802      4.000000
  0.000000  0.000000  0.033604      1.000000
  0.017414  0.010054  0.033604      6.000000
  0.034828  0.020108  0.033604      6.000000
  0.052241  0.030162  0.033604      6.000000
  0.069655  0.040215  0.033604      6.000000
  0.087069  0.050269  0.033604      6.000000
  0.104483  0.060323  0.033604      6.000000
  0.121897  0.070377  0.033604      6.000000
  0.139310  0.080431  0.033604      6.000000
  0.156724  0.090485  0.033604      3.000000
  0.017414  0.030162  0.033604      6.000000
  0.034828  0.040215  0.033604     12.000000
  0.052241  0.050269  0.033604     12.000000
  0.069655  0.060323  0.033604     12.000000
  0.087069  0.070377  0.033604     12.000000
  0.104483  0.080431  0.033604     12.000000
  0.121897  0.090485  0.033604     12.000000
  0.139310  0.100539  0.033604     12.000000
  0.034828  0.060323  0.033604      6.000000
  0.052241  0.070377  0.033604     12.000000
  0.069655  0.080431  0.033604     12.000000
  0.087069  0.090485  0.033604     12.000000
  0.104483  0.100539  0.033604     12.000000
  0.121897  0.110593  0.033604     12.000000
  0.139310  0.120646  0.033604      6.000000
  0.052241  0.090485  0.033604      6.000000
  0.069655  0.100539  0.033604     12.000000
  0.087069  0.110593  0.033604     12.000000
  0.104483  0.120646  0.033604     12.000000
  0.121897  0.130700  0.033604     12.000000
  0.069655  0.120646  0.033604      6.000000
  0.087069  0.130700  0.033604     12.000000
  0.104483  0.140754  0.033604     12.000000
  0.121897  0.150808  0.033604      6.000000
  0.087069  0.150808  0.033604      6.000000
  0.104483  0.160862  0.033604     12.000000
  0.104483  0.180970  0.033604      2.000000
 
 TETIRR: Found   1318 inequivalent tetrahedra from     7776


--------------------------------------------------------------------------------------------------------




 Dimension of arrays:
   k-points           NKPTS =    111   k-points in BZ     NKDIM =    111   number of bands    NBANDS=     22
   number of dos      NEDOS =    301   number of ions     NIONS =      6
   non local maximal  LDIM  =      6   non local SUM 2l+1 LMDIM =     18
   total plane-waves  NPLWV =  25920
   max r-space proj   IRMAX =      1   max aug-charges    IRDMAX=  12887
   dimension x,y,z NGX =    18 NGY =   18 NGZ =   80
   dimension x,y,z NGXF=    36 NGYF=   36 NGZF=  160
   support grid    NGXF=    36 NGYF=   36 NGZF=  160
   ions per type =               2   4
   NGX,Y,Z   is equivalent  to a cutoff of   9.38,  9.38,  8.94 a.u.
   NGXF,Y,Z  is equivalent  to a cutoff of  18.76, 18.76, 17.88 a.u.

 SYSTEM =  unknown system                          
 POSCAR =  MoS2_mp-2815_computed                   

 Startparameter for this run:
   NWRITE =      2    write-flag & timer
   PREC   = normal    normal or accurate (medium, high low for compatibility)
   ISTART =      0    job   : 0-new  1-cont  2-samecut
   ICHARG =      2    charge: 1-file 2-atom 10-const
   ISPIN  =      1    spin polarized calculation?
   LNONCOLLINEAR =      F non collinear calculations
   LSORBIT =      F    spin-orbit coupling
   INIWAV =      1    electr: 0-lowe 1-rand  2-diag
   LASPH  =      F    aspherical Exc in radial PAW
   METAGGA=      F    non-selfconsistent MetaGGA calc.

 Electronic Relaxation 1
   ENCUT  =  450.0 eV  33.07 Ry    5.75 a.u.   5.52  5.52 25.74*2*pi/ulx,y,z
   ENINI  =  450.0     initial cutoff
   ENAUG  =  345.3 eV  augmentation charge cutoff
   NELM   =     60;   NELMIN=  4; NELMDL=  0     # of ELM steps 
   EDIFF  = 0.1E-04   stopping-criterion for ELM
   LREAL  =      F    real-space projection
   NLSPLINE    = F    spline interpolate recip. space projectors
   LCOMPAT=      F    compatible to vasp.4.4
   GGA_COMPAT  = T    GGA compatible to vasp.4.4-vasp.4.6
   LMAXPAW     = -100 max onsite density
   LMAXMIX     =    2 max onsite mixed and CHGCAR
   VOSKOWN=      0    Vosko Wilk Nusair interpolation
   ROPT   =    0.00000   0.00000
 Ionic relaxation
   EDIFFG = 0.1E-03   stopping-criterion for IOM
   NSW    =      0    number of steps for IOM
   NBLOCK =      1;   KBLOCK =      1    inner block; outer block 
   IBRION =     -1    ionic relax: 0-MD 1-quasi-New 2-CG
   NFREE  =      0    steps in history (QN), initial steepest desc. (CG)
   ISIF   =      2    stress and relaxation
   IWAVPR =     10    prediction:  0-non 1-charg 2-wave 3-comb
   ISYM   =      2    0-nonsym 1-usesym 2-fastsym
   LCORR  =      T    Harris-Foulkes like correction to forces

   POTIM  = 0.5000    time-step for ionic-motion
   TEIN   =    0.0    initial temperature
   TEBEG  =    0.0;   TEEND  =   0.0 temperature during run
   SMASS  =  -3.00    Nose mass-parameter (am)
   estimated Nose-frequenzy (Omega)   =  0.10E-29 period in steps =****** mass=  -0.233E-27a.u.
   SCALEE = 1.0000    scale energy and forces
   NPACO  =    256;   APACO  = 16.0  distance and # of slots for P.C.
   PSTRESS=    0.0 pullay stress

  Mass of Ions in am
   POMASS =  95.94 32.07
  Ionic Valenz
   ZVAL   =   6.00  6.00
  Atomic Wigner-Seitz radii
   RWIGS  =  -1.00 -1.00
  virtual crystal weights 
   VCA    =   1.00  1.00
   NELECT =      36.0000    total number of electrons
   NUPDOWN=      -1.0000    fix difference up-down

 DOS related values:
   EMIN   =  10.00;   EMAX   =-10.00  energy-range for DOS
   EFERMI =   0.00
   ISMEAR =    -5;   SIGMA  =   0.20  broadening in eV -4-tet -1-fermi 0-gaus

 Electronic relaxation 2 (details)
   IALGO  =     68    algorithm
   LDIAG  =      T    sub-space diagonalisation (order eigenvalues)
   LSUBROT=      F    optimize rotation matrix (better conditioning)
   TURBO    =      0    0=normal 1=particle mesh
   IRESTART =      0    0=no restart 2=restart with 2 vectors
   NREBOOT  =      0    no. of reboots
   NMIN     =      0    reboot dimension
   EREF     =   0.00    reference energy to select bands
   IMIX   =      4    mixing-type and parameters
     AMIX     =   0.40;   BMIX     =  1.00
     AMIX_MAG =   1.60;   BMIX_MAG =  1.00
     AMIN     =   0.10
     WC   =   100.;   INIMIX=   1;  MIXPRE=   1;  MAXMIX= -45

 Intra band minimization:
   WEIMIN = 0.0000     energy-eigenvalue tresh-hold
   EBREAK =  0.11E-06  absolut break condition
   DEPER  =   0.30     relativ break condition  

   TIME   =   0.40     timestep for ELM

  volume/ion in A,a.u.               =      21.86       147.51
  Fermi-wavevector in a.u.,A,eV,Ry     =   1.063943  2.010561 15.401453  1.131975
  Thomas-Fermi vector in A             =   2.199445
 
 Write flags
   LWAVE        =      F    write WAVECAR
   LDOWNSAMPLE  =      F    k-point downsampling of WAVECAR
   LCHARG       =      T    write CHGCAR
   LVTOT        =      F    write LOCPOT, total local potential
   LVHAR        =      F    write LOCPOT, Hartree potential only
   LELF         =      F    write electronic localiz. function (ELF)
   LORBIT       =      0    0 simple, 1 ext, 2 COOP (PROOUT), +10 PAW based schemes


 Dipole corrections
   LMONO  =      F    monopole corrections only (constant potential shift)
   LDIPOL =      F    correct potential (dipole corrections)
   IDIPOL =      0    1-x, 2-y, 3-z, 4-all directions 
   EPSILON=  1.0000000 bulk dielectric constant

 Exchange correlation treatment:
   GGA     =    --    GGA type
   LEXCH   =     8    internal setting for exchange type
   VOSKOWN=      0    Vosko Wilk Nusair interpolation
   LHFCALC =     F    Hartree Fock is set to
   LHFONE  =     F    Hartree Fock one center treatment
   AEXX    =    0.0000 exact exchange contribution

 Linear response parameters
   LEPSILON=     F    determine dielectric tensor
   LRPA    =     F    only Hartree local field effects (RPA)
   LNABLA  =     F    use nabla operator in PAW spheres
   LVEL    =     F    velocity operator in full k-point grid
   LINTERFAST=   F  fast interpolation
   KINTER  =     0    interpolate to denser k-point grid
   CSHIFT  =0.1000    complex shift for real part using Kramers Kronig
   OMEGAMAX=  -1.0    maximum frequency
   DEG_THRESHOLD= 0.2000000E-02 threshold for treating states as degnerate
   RTIME   =   -0.100 relaxation time in fs
  (WPLASMAI=    0.000 imaginary part of plasma frequency in eV, 0.658/RTIME)
   DFIELD  = 0.0000000 0.0000000 0.0000000 field for delta impulse in time
 
 Orbital magnetization related:
   ORBITALMAG=     F  switch on orbital magnetization
   LCHIMAG   =     F  perturbation theory with respect to B field
   DQ        =  0.001000  dq finite difference perturbation B field
   LLRAUG    =     F  two centre corrections for induced B field



--------------------------------------------------------------------------------------------------------


 Static calculation
 charge density and potential will be updated during run
 non-spin polarized calculation
 RMM-DIIS sequential band-by-band and
  variant of blocked Davidson during initial phase
 perform sub-space diagonalisation
    before iterative eigenvector-optimisation
 modified Broyden-mixing scheme, WC =      100.0
 initial mixing is a Kerker type mixing with AMIX =  0.4000 and BMIX =      1.0000
 Hartree-type preconditioning will be used
 using additional bands            4
 reciprocal scheme for non local part
 use partial core corrections
 calculate Harris-corrections to forces 
   (improved forces if not selfconsistent)
 use gradient corrections 
 use of overlap-Matrix (Vanderbilt PP)
 Fermi weights with tetrahedron method with Bloechl corrections


--------------------------------------------------------------------------------------------------------


  energy-cutoff  :      450.00
  volume of cell :      131.15
      direct lattice vectors                 reciprocal lattice vectors
     3.190315730  0.000000000  0.000000000     0.313448600  0.180969634  0.000000000
    -1.595157865  2.762894468  0.000000000     0.000000000  0.361939267  0.000000000
     0.000000000  0.000000000 14.879004300     0.000000000  0.000000000  0.067208798

  length of vectors
     3.190315730  3.190315730 14.879004300     0.361939267  0.361939267  0.067208798


 
 k-points in units of 2pi/SCALE and weight: k-density: 9.0                          
   0.00000000  0.00000000  0.00000000       0.001
   0.01741381  0.01005387  0.00000000       0.005
   0.03482762  0.02010774  0.00000000       0.005
   0.05224143  0.03016161  0.00000000       0.005
   0.06965524  0.04021547  0.00000000       0.005
   0.08706906  0.05026934  0.00000000       0.005
   0.10448287  0.06032321  0.00000000       0.005
   0.12189668  0.07037708  0.00000000       0.005
   0.13931049  0.08043095  0.00000000       0.005
   0.15672430  0.09048482  0.00000000       0.002
   0.01741381  0.03016161  0.00000000       0.005
   0.03482762  0.04021547  0.00000000       0.009
   0.05224143  0.05026934  0.00000000       0.009
   0.06965524  0.06032321  0.00000000       0.009
   0.08706906  0.07037708  0.00000000       0.009
   0.10448287  0.08043095  0.00000000       0.009
   0.12189668  0.09048482  0.00000000       0.009
   0.13931049  0.10053869  0.00000000       0.009
   0.03482762  0.06032321  0.00000000       0.005
   0.05224143  0.07037708  0.00000000       0.009
   0.06965524  0.08043095  0.00000000       0.009
   0.08706906  0.09048482  0.00000000       0.009
   0.10448287  0.10053869  0.00000000       0.009
   0.12189668  0.11059255  0.00000000       0.009
   0.13931049  0.12064642  0.00000000       0.005
   0.05224143  0.09048482  0.00000000       0.005
   0.06965524  0.10053869  0.00000000       0.009
   0.08706906  0.11059255  0.00000000       0.009
   0.10448287  0.12064642  0.00000000       0.009
   0.12189668  0.13070029  0.00000000       0.009
   0.06965524  0.12064642  0.00000000       0.005
   0.08706906  0.13070029  0.00000000       0.009
   0.10448287  0.14075416  0.00000000       0.009
   0.12189668  0.15080803  0.00000000       0.005
   0.08706906  0.15080803  0.00000000       0.005
   0.10448287  0.16086190  0.00000000       0.009
   0.10448287  0.18096963  0.00000000       0.002
   0.00000000  0.00000000  0.01680220       0.002
   0.01741381  0.01005387  0.01680220       0.009
   0.03482762  0.02010774  0.01680220       0.009
   0.05224143  0.03016161  0.01680220       0.009
   0.06965524  0.04021547  0.01680220       0.009
   0.08706906  0.05026934  0.01680220       0.009
   0.10448287  0.06032321  0.01680220       0.009
   0.12189668  0.07037708  0.01680220       0.009
   0.13931049  0.08043095  0.01680220       0.009
   0.15672430  0.09048482  0.01680220       0.005
   0.01741381  0.03016161  0.01680220       0.009
   0.03482762  0.04021547  0.01680220       0.019
   0.05224143  0.05026934  0.01680220       0.019
   0.06965524  0.06032321  0.01680220       0.019
   0.08706906  0.07037708  0.01680220       0.019
   0.10448287  0.08043095  0.01680220       0.019
   0.12189668  0.09048482  0.01680220       0.019
   0.13931049  0.10053869  0.01680220       0.019
   0.03482762  0.06032321  0.01680220       0.009
   0.05224143  0.07037708  0.01680220       0.019
   0.06965524  0.08043095  0.01680220       0.019
   0.08706906  0.09048482  0.01680220       0.019
   0.10448287  0.10053869  0.01680220       0.019
   0.12189668  0.11059255  0.01680220       0.019
   0.13931049  0.12064642  0.01680220       0.009
   0.05224143  0.09048482  0.01680220       0.009
   0.06965524  0.10053869  0.01680220       0.019
   0.08706906  0.11059255  0.01680220       0.019
   0.10448287  0.12064642  0.01680220       0.019
   0.12189668  0.13070029  0.01680220       0.019
   0.06965524  0.12064642  0.01680220       0.009
   0.08706906  0.13070029  0.01680220       0.019
   0.10448287  0.14075416  0.01680220       0.019
   0.12189668  0.15080803  0.01680220       0.009
   0.08706906  0.15080803  0.01680220       0.009
   0.10448287  0.16086190  0.01680220       0.019
   0.10448287  0.18096963  0.01680220       0.003
   0.00000000  0.00000000  0.03360440       0.001
   0.01741381  0.01005387  0.03360440       0.005
   0.03482762  0.02010774  0.03360440       0.005
   0.05224143  0.03016161  0.03360440       0.005
   0.06965524  0.04021547  0.03360440       0.005
   0.08706906  0.05026934  0.03360440       0.005
   0.10448287  0.06032321  0.03360440       0.005
   0.12189668  0.07037708  0.03360440       0.005
   0.13931049  0.08043095  0.03360440       0.005
   0.15672430  0.09048482  0.03360440       0.002
   0.01741381  0.03016161  0.03360440       0.005
   0.03482762  0.04021547  0.03360440       0.009
   0.05224143  0.05026934  0.03360440       0.009
   0.06965524  0.06032321  0.03360440       0.009
   0.08706906  0.07037708  0.03360440       0.009
   0.10448287  0.08043095  0.03360440       0.009
   0.12189668  0.09048482  0.03360440       0.009
   0.13931049  0.10053869  0.03360440       0.009
   0.03482762  0.06032321  0.03360440       0.005
   0.05224143  0.07037708  0.03360440       0.009
   0.06965524  0.08043095  0.03360440       0.009
   0.08706906  0.09048482  0.03360440       0.009
   0.10448287  0.10053869  0.03360440       0.009
   0.12189668  0.11059255  0.03360440       0.009
   0.13931049  0.12064642  0.03360440       0.005
   0.05224143  0.09048482  0.03360440       0.005
   0.06965524  0.10053869  0.03360440       0.009
   0.08706906  0.11059255  0.03360440       0.009
   0.10448287  0.12064642  0.03360440       0.009
   0.12189668  0.13070029  0.03360440       0.009
   0.06965524  0.12064642  0.03360440       0.005
   0.08706906  0.13070029  0.03360440       0.009
   0.10448287  0.14075416  0.03360440       0.009
   0.12189668  0.15080803  0.03360440       0.005
   0.08706906  0.15080803  0.03360440       0.005
   0.10448287  0.16086190  0.03360440       0.009
   0.10448287  0.18096963  0.03360440       0.002
 
 k-points in reciprocal lattice and weights: k-density: 9.0                          
   0.00000000  0.00000000  0.00000000       0.001
   0.05555556 -0.00000000  0.00000000       0.005
   0.11111111 -0.00000000  0.00000000       0.005
   0.16666667 -0.00000000  0.00000000       0.005
   0.22222222  0.00000000  0.00000000       0.005
   0.27777778  0.00000000  0.00000000       0.005
   0.33333333  0.00000000  0.00000000       0.005
   0.38888889  0.00000000  0.00000000       0.005
   0.44444444  0.00000000  0.00000000       0.005
   0.50000000  0.00000000  0.00000000       0.002
   0.05555556  0.05555556  0.00000000       0.005
   0.11111111  0.05555556  0.00000000       0.009
   0.16666667  0.05555556  0.00000000       0.009
   0.22222222  0.05555556  0.00000000       0.009
   0.27777778  0.05555556  0.00000000       0.009
   0.33333333  0.05555556  0.00000000       0.009
   0.38888889  0.05555556  0.00000000       0.009
   0.44444444  0.05555556  0.00000000       0.009
   0.11111111  0.11111111  0.00000000       0.005
   0.16666667  0.11111111  0.00000000       0.009
   0.22222222  0.11111111  0.00000000       0.009
   0.27777778  0.11111111  0.00000000       0.009
   0.33333333  0.11111111  0.00000000       0.009
   0.38888889  0.11111111  0.00000000       0.009
   0.44444444  0.11111111  0.00000000       0.005
   0.16666667  0.16666667  0.00000000       0.005
   0.22222222  0.16666667  0.00000000       0.009
   0.27777778  0.16666667  0.00000000       0.009
   0.33333333  0.16666667  0.00000000       0.009
   0.38888889  0.16666667  0.00000000       0.009
   0.22222222  0.22222222  0.00000000       0.005
   0.27777778  0.22222222  0.00000000       0.009
   0.33333333  0.22222222  0.00000000       0.009
   0.38888889  0.22222222  0.00000000       0.005
   0.27777778  0.27777778  0.00000000       0.005
   0.33333333  0.27777778  0.00000000       0.009
   0.33333333  0.33333333  0.00000000       0.002
   0.00000000  0.00000000  0.25000000       0.002
   0.05555556 -0.00000000  0.25000000       0.009
   0.11111111 -0.00000000  0.25000000       0.009
   0.16666667 -0.00000000  0.25000000       0.009
   0.22222222  0.00000000  0.25000000       0.009
   0.27777778  0.00000000  0.25000000       0.009
   0.33333333  0.00000000  0.25000000       0.009
   0.38888889  0.00000000  0.25000000       0.009
   0.44444444  0.00000000  0.25000000       0.009
   0.50000000  0.00000000  0.25000000       0.005
   0.05555556  0.05555556  0.25000000       0.009
   0.11111111  0.05555556  0.25000000       0.019
   0.16666667  0.05555556  0.25000000       0.019
   0.22222222  0.05555556  0.25000000       0.019
   0.27777778  0.05555556  0.25000000       0.019
   0.33333333  0.05555556  0.25000000       0.019
   0.38888889  0.05555556  0.25000000       0.019
   0.44444444  0.05555556  0.25000000       0.019
   0.11111111  0.11111111  0.25000000       0.009
   0.16666667  0.11111111  0.25000000       0.019
   0.22222222  0.11111111  0.25000000       0.019
   0.27777778  0.11111111  0.25000000       0.019
   0.33333333  0.11111111  0.25000000       0.019
   0.38888889  0.11111111  0.25000000       0.019
   0.44444444  0.11111111  0.25000000       0.009
   0.16666667  0.16666667  0.25000000       0.009
   0.22222222  0.16666667  0.25000000       0.019
   0.27777778  0.16666667  0.25000000       0.019
   0.33333333  0.16666667  0.25000000       0.019
   0.38888889  0.16666667  0.25000000       0.019
   0.22222222  0.22222222  0.25000000       0.009
   0.27777778  0.22222222  0.25000000       0.019
   0.33333333  0.22222222  0.25000000       0.019
   0.38888889  0.22222222  0.25000000       0.009
   0.27777778  0.27777778  0.25000000       0.009
   0.33333333  0.27777778  0.25000000       0.019
   0.33333333  0.33333333  0.25000000       0.003
   0.00000000  0.00000000  0.50000000       0.001
   0.05555556 -0.00000000  0.50000000       0.005
   0.11111111 -0.00000000  0.50000000       0.005
   0.16666667 -0.00000000  0.50000000       0.005
   0.22222222  0.00000000  0.50000000       0.005
   0.27777778  0.00000000  0.50000000       0.005
   0.33333333  0.00000000  0.50000000       0.005
   0.38888889  0.00000000  0.50000000       0.005
   0.44444444  0.00000000  0.50000000       0.005
   0.50000000  0.00000000  0.50000000       0.002
   0.05555556  0.05555556  0.50000000       0.005
   0.11111111  0.05555556  0.50000000       0.009
   0.16666667  0.05555556  0.50000000       0.009
   0.22222222  0.05555556  0.50000000       0.009
   0.27777778  0.05555556  0.50000000       0.009
   0.33333333  0.05555556  0.50000000       0.009
   0.38888889  0.05555556  0.50000000       0.009
   0.44444444  0.05555556  0.50000000       0.009
   0.11111111  0.11111111  0.50000000       0.005
   0.16666667  0.11111111  0.50000000       0.009
   0.22222222  0.11111111  0.50000000       0.009
   0.27777778  0.11111111  0.50000000       0.009
   0.33333333  0.11111111  0.50000000       0.009
   0.38888889  0.11111111  0.50000000       0.009
   0.44444444  0.11111111  0.50000000       0.005
   0.16666667  0.16666667  0.50000000       0.005
   0.22222222  0.16666667  0.50000000       0.009
   0.27777778  0.16666667  0.50000000       0.009
   0.33333333  0.16666667  0.50000000       0.009
   0.38888889  0.16666667  0.50000000       0.009
   0.22222222  0.22222222  0.50000000       0.005
   0.27777778  0.22222222  0.50000000       0.009
   0.33333333  0.22222222  0.50000000       0.009
   0.38888889  0.22222222  0.50000000       0.005
   0.27777778  0.27777778  0.50000000       0.005
   0.33333333  0.27777778  0.50000000       0.009
   0.33333333  0.33333333  0.50000000       0.002
 
 position of ions in fractional coordinates (direct lattice) 
   0.33333300  0.66666700  0.25000000
   0.66666700  0.33333300  0.75000000
   0.33333300  0.66666700  0.85517400
   0.66666700  0.33333300  0.14482600
   0.66666600  0.33333300  0.35517400
   0.33333400  0.66666700  0.64482600
 
 position of ions in cartesian coordinates  (Angst):
  -0.00000160  1.84193057  3.71975108
   1.59515946  0.92096390 11.15925323
  -0.00000160  1.84193057 12.72413762
   1.59515946  0.92096390  2.15486668
   1.59515627  0.92096390  5.28463547
   0.00000160  1.84193057  9.59436883
 


--------------------------------------------------------------------------------------------------------


 k-point  1 :   0.0000 0.0000 0.0000  plane waves:    2895
 k-point  2 :   0.0556-0.0000 0.0000  plane waves:    2887
 k-point  3 :   0.1111-0.0000 0.0000  plane waves:    2891
 k-point  4 :   0.1667-0.0000 0.0000  plane waves:    2867
 k-point  5 :   0.2222 0.0000 0.0000  plane waves:    2854
 k-point  6 :   0.2778 0.0000 0.0000  plane waves:    2850
 k-point  7 :   0.3333 0.0000 0.0000  plane waves:    2838
 k-point  8 :   0.3889 0.0000 0.0000  plane waves:    2832
 k-point  9 :   0.4444 0.0000 0.0000  plane waves:    2796
 k-point 10 :   0.5000 0.0000 0.0000  plane waves:    2784
 k-point 11 :   0.0556 0.0556 0.0000  plane waves:    2895
 k-point 12 :   0.1111 0.0556 0.0000  plane waves:    2881
 k-point 13 :   0.1667 0.0556 0.0000  plane waves:    2852
 k-point 14 :   0.2222 0.0556 0.0000  plane waves:    2851
 k-point 15 :   0.2778 0.0556 0.0000  plane waves:    2849
 k-point 16 :   0.3333 0.0556 0.0000  plane waves:    2838
 k-point 17 :   0.3889 0.0556 0.0000  plane waves:    2824
 k-point 18 :   0.4444 0.0556 0.0000  plane waves:    2806
 k-point 19 :   0.1111 0.1111 0.0000  plane waves:    2861
 k-point 20 :   0.1667 0.1111 0.0000  plane waves:    2845
 k-point 21 :   0.2222 0.1111 0.0000  plane waves:    2845
 k-point 22 :   0.2778 0.1111 0.0000  plane waves:    2843
 k-point 23 :   0.3333 0.1111 0.0000  plane waves:    2831
 k-point 24 :   0.3889 0.1111 0.0000  plane waves:    2814
 k-point 25 :   0.4444 0.1111 0.0000  plane waves:    2824
 k-point 26 :   0.1667 0.1667 0.0000  plane waves:    2851
 k-point 27 :   0.2222 0.1667 0.0000  plane waves:    2853
 k-point 28 :   0.2778 0.1667 0.0000  plane waves:    2849
 k-point 29 :   0.3333 0.1667 0.0000  plane waves:    2832
 k-point 30 :   0.3889 0.1667 0.0000  plane waves:    2835
 k-point 31 :   0.2222 0.2222 0.0000  plane waves:    2851
 k-point 32 :   0.2778 0.2222 0.0000  plane waves:    2832
 k-point 33 :   0.3333 0.2222 0.0000  plane waves:    2838
 k-point 34 :   0.3889 0.2222 0.0000  plane waves:    2834
 k-point 35 :   0.2778 0.2778 0.0000  plane waves:    2832
 k-point 36 :   0.3333 0.2778 0.0000  plane waves:    2846
 k-point 37 :   0.3333 0.3333 0.0000  plane waves:    2832
 k-point 38 :   0.0000 0.0000 0.2500  plane waves:    2895
 k-point 39 :   0.0556-0.0000 0.2500  plane waves:    2885
 k-point 40 :   0.1111-0.0000 0.2500  plane waves:    2881
 k-point 41 :   0.1667-0.0000 0.2500  plane waves:    2874
 k-point 42 :   0.2222 0.0000 0.2500  plane waves:    2853
 k-point 43 :   0.2778 0.0000 0.2500  plane waves:    2849
 k-point 44 :   0.3333 0.0000 0.2500  plane waves:    2838
 k-point 45 :   0.3889 0.0000 0.2500  plane waves:    2835
 k-point 46 :   0.4444 0.0000 0.2500  plane waves:    2816
 k-point 47 :   0.5000 0.0000 0.2500  plane waves:    2812
 k-point 48 :   0.0556 0.0556 0.2500  plane waves:    2888
 k-point 49 :   0.1111 0.0556 0.2500  plane waves:    2881
 k-point 50 :   0.1667 0.0556 0.2500  plane waves:    2866
 k-point 51 :   0.2222 0.0556 0.2500  plane waves:    2849
 k-point 52 :   0.2778 0.0556 0.2500  plane waves:    2851
 k-point 53 :   0.3333 0.0556 0.2500  plane waves:    2835
 k-point 54 :   0.3889 0.0556 0.2500  plane waves:    2826
 k-point 55 :   0.4444 0.0556 0.2500  plane waves:    2812
 k-point 56 :   0.1111 0.1111 0.2500  plane waves:    2864
 k-point 57 :   0.1667 0.1111 0.2500  plane waves:    2851
 k-point 58 :   0.2222 0.1111 0.2500  plane waves:    2846
 k-point 59 :   0.2778 0.1111 0.2500  plane waves:    2843
 k-point 60 :   0.3333 0.1111 0.2500  plane waves:    2826
 k-point 61 :   0.3889 0.1111 0.2500  plane waves:    2825
 k-point 62 :   0.4444 0.1111 0.2500  plane waves:    2817
 k-point 63 :   0.1667 0.1667 0.2500  plane waves:    2845
 k-point 64 :   0.2222 0.1667 0.2500  plane waves:    2842
 k-point 65 :   0.2778 0.1667 0.2500  plane waves:    2839
 k-point 66 :   0.3333 0.1667 0.2500  plane waves:    2828
 k-point 67 :   0.3889 0.1667 0.2500  plane waves:    2825
 k-point 68 :   0.2222 0.2222 0.2500  plane waves:    2850
 k-point 69 :   0.2778 0.2222 0.2500  plane waves:    2836
 k-point 70 :   0.3333 0.2222 0.2500  plane waves:    2832
 k-point 71 :   0.3889 0.2222 0.2500  plane waves:    2828
 k-point 72 :   0.2778 0.2778 0.2500  plane waves:    2836
 k-point 73 :   0.3333 0.2778 0.2500  plane waves:    2841
 k-point 74 :   0.3333 0.3333 0.2500  plane waves:    2841
 k-point 75 :   0.0000 0.0000 0.5000  plane waves:    2884
 k-point 76 :   0.0556-0.0000 0.5000  plane waves:    2888
 k-point 77 :   0.1111-0.0000 0.5000  plane waves:    2892
 k-point 78 :   0.1667-0.0000 0.5000  plane waves:    2882
 k-point 79 :   0.2222 0.0000 0.5000  plane waves:    2864
 k-point 80 :   0.2778 0.0000 0.5000  plane waves:    2848
 k-point 81 :   0.3333 0.0000 0.5000  plane waves:    2842
 k-point 82 :   0.3889 0.0000 0.5000  plane waves:    2834
 k-point 83 :   0.4444 0.0000 0.5000  plane waves:    2830
 k-point 84 :   0.5000 0.0000 0.5000  plane waves:    2828
 k-point 85 :   0.0556 0.0556 0.5000  plane waves:    2882
 k-point 86 :   0.1111 0.0556 0.5000  plane waves:    2872
 k-point 87 :   0.1667 0.0556 0.5000  plane waves:    2864
 k-point 88 :   0.2222 0.0556 0.5000  plane waves:    2848
 k-point 89 :   0.2778 0.0556 0.5000  plane waves:    2842
 k-point 90 :   0.3333 0.0556 0.5000  plane waves:    2828
 k-point 91 :   0.3889 0.0556 0.5000  plane waves:    2830
 k-point 92 :   0.4444 0.0556 0.5000  plane waves:    2812
 k-point 93 :   0.1111 0.1111 0.5000  plane waves:    2880
 k-point 94 :   0.1667 0.1111 0.5000  plane waves:    2846
 k-point 95 :   0.2222 0.1111 0.5000  plane waves:    2850
 k-point 96 :   0.2778 0.1111 0.5000  plane waves:    2844
 k-point 97 :   0.3333 0.1111 0.5000  plane waves:    2832
 k-point 98 :   0.3889 0.1111 0.5000  plane waves:    2822
 k-point 99 :   0.4444 0.1111 0.5000  plane waves:    2818
 k-point ** :   0.1667 0.1667 0.5000  plane waves:    2838
 k-point ** :   0.2222 0.1667 0.5000  plane waves:    2850
 k-point ** :   0.2778 0.1667 0.5000  plane waves:    2840
 k-point ** :   0.3333 0.1667 0.5000  plane waves:    2834
 k-point ** :   0.3889 0.1667 0.5000  plane waves:    2818
 k-point ** :   0.2222 0.2222 0.5000  plane waves:    2822
 k-point ** :   0.2778 0.2222 0.5000  plane waves:    2834
 k-point ** :   0.3333 0.2222 0.5000  plane waves:    2838
 k-point ** :   0.3889 0.2222 0.5000  plane waves:    2828
 k-point ** :   0.2778 0.2778 0.5000  plane waves:    2834
 k-point ** :   0.3333 0.2778 0.5000  plane waves:    2840
 k-point ** :   0.3333 0.3333 0.5000  plane waves:    2868

 maximum and minimum number of plane-waves per node :      1462     1377

 maximum number of plane-waves:      2895
 maximum index in each direction: 
   IXMAX=    5   IYMAX=    5   IZMAX=   25
   IXMIN=   -6   IYMIN=   -5   IZMIN=  -26


 parallel 3D FFT for wavefunctions:
    minimum data exchange during FFTs selected (reduces bandwidth)
 parallel 3D FFT for charge:
    minimum data exchange during FFTs selected (reduces bandwidth)


 total amount of memory used by VASP MPI-rank0   110831. kBytes
=======================================================================

   base      :      30000. kBytes
   nonl-proj :      46300. kBytes
   fftplans  :       2162. kBytes
   grid      :       3449. kBytes
   one-center:         46. kBytes
   wavefun   :      28874. kBytes
 
     INWAV:  cpu time    0.0000: real time    0.0000
 Broyden mixing: mesh for mixing (old mesh)
   NGX = 11   NGY = 11   NGZ = 51
  (NGX  = 36   NGY  = 36   NGZ  =160)
  gives a total of   6171 points

 initial charge density was supplied:
 charge density of overlapping atoms calculated
 number of electron      36.0000000 magnetization 
 keeping initial charge density in first step


--------------------------------------------------------------------------------------------------------


 Maximum index for augmentation-charges         3021 (set IRDMAX)


--------------------------------------------------------------------------------------------------------


 First call to EWALD:  gamma=   0.349
 Maximum number of real-space cells 5x 5x 1
 Maximum number of reciprocal cells 2x 2x 7

    FEWALD:  cpu time    0.0010: real time    0.0014


--------------------------------------- Iteration      1(   1)  ---------------------------------------


    POTLOK:  cpu time    0.0290: real time    0.0705
    SETDIJ:  cpu time    0.0040: real time    0.0051
     EDDAV:  cpu time    2.2807: real time    2.2864
 BZINTS: Fermi energy: 14.435317; 36.000000 electrons
         Band energy: 165.229872;  BLOECHL correction: -0.191691
       DOS:  cpu time    0.0500: real time    0.0498
    --------------------------------------------
      LOOP:  cpu time    2.3636: real time    2.4117

 eigenvalue-minimisations  :  4884
 total energy-change (2. order) : 0.1984723E+03  (-0.1467697E+04)
 number of electron      36.0000000 magnetization 
 augmentation part       36.0000000 magnetization 

 Free energy of the ion-electron system (eV)
  ---------------------------------------------------
  alpha Z        PSCENC =        90.42577596
  Ewald energy   TEWEN  =     -1146.88905665
  -Hartree energ DENC   =      -535.10238363
  -exchange      EXHF   =         0.00000000
  -V(xc)+E(xc)   XCENC  =       -72.59368150
  PAW double counting   =       813.77302396     -658.68146406
  entropy T*S    EENTRO =         0.00000000
  eigenvalues    EBANDS =       165.22987183
  atomic energy  EATOM  =      1542.31022798
  Solvation  Ediel_sol  =         0.00000000
  ---------------------------------------------------
  free energy    TOTEN  =       198.47231391 eV

  energy without entropy =      198.47231391  energy(sigma->0) =      198.47231391


--------------------------------------------------------------------------------------------------------




--------------------------------------- Iteration      1(   2)  ---------------------------------------


     EDDAV:  cpu time    2.9376: real time    2.9402
 BZINTS: Fermi energy:  5.819426; 36.000000 electrons
         Band energy: -62.138738;  BLOECHL correction: -0.001675
       DOS:  cpu time    0.0380: real time    0.0380
    --------------------------------------------
      LOOP:  cpu time    2.9755: real time    2.9782

 eigenvalue-minimisations  :  6730
 total energy-change (2. order) :-0.2273686E+03  (-0.2216728E+03)
 number of electron      36.0000000 magnetization 
 augmentation part       36.0000000 magnetization 

 Free energy of the ion-electron system (eV)
  ---------------------------------------------------
  alpha Z        PSCENC =        90.42577596
  Ewald energy   TEWEN  =     -1146.88905665
  -Hartree energ DENC   =      -535.10238363
  -exchange      EXHF   =         0.00000000
  -V(xc)+E(xc)   XCENC  =       -72.59368150
  PAW double counting   =       813.77302396     -658.68146406
  entropy T*S    EENTRO =         0.00000000
  eigenvalues    EBANDS =       -62.13873845
  atomic energy  EATOM  =      1542.31022798
  Solvation  Ediel_sol  =         0.00000000
  ---------------------------------------------------
  free energy    TOTEN  =       -28.89629637 eV

  energy without entropy =      -28.89629637  energy(sigma->0) =      -28.89629637


--------------------------------------------------------------------------------------------------------




--------------------------------------- Iteration      1(   3)  ---------------------------------------


     EDDAV:  cpu time    2.8236: real time    2.8268
 BZINTS: Fermi energy:  4.185518; 36.000000 electrons
         Band energy: -79.532014;  BLOECHL correction:  0.000000
       DOS:  cpu time    0.0140: real time    0.0139
    --------------------------------------------
      LOOP:  cpu time    2.8376: real time    2.8406

 eigenvalue-minimisations  :  6414
 total energy-change (2. order) :-0.1739328E+02  (-0.1731200E+02)
 number of electron      36.0000000 magnetization 
 augmentation part       36.0000000 magnetization 

 Free energy of the ion-electron system (eV)
  ---------------------------------------------------
  alpha Z        PSCENC =        90.42577596
  Ewald energy   TEWEN  =     -1146.88905665
  -Hartree energ DENC   =      -535.10238363
  -exchange      EXHF   =         0.00000000
  -V(xc)+E(xc)   XCENC  =       -72.59368150
  PAW double counting   =       813.77302396     -658.68146406
  entropy T*S    EENTRO =         0.00000000
  eigenvalues    EBANDS =       -79.53201394
  atomic energy  EATOM  =      1542.31022798
  Solvation  Ediel_sol  =         0.00000000
  ---------------------------------------------------
  free energy    TOTEN  =       -46.28957186 eV

  energy without entropy =      -46.28957186  energy(sigma->0) =      -46.28957186


--------------------------------------------------------------------------------------------------------




--------------------------------------- Iteration      1(   4)  ---------------------------------------


     EDDAV:  cpu time    2.9665: real time    2.9700
 BZINTS: Fermi energy:  3.898325; 36.000000 electrons
         Band energy: -80.049315;  BLOECHL correction:  0.000000
       DOS:  cpu time    0.0100: real time    0.0101
    --------------------------------------------
      LOOP:  cpu time    2.9765: real time    2.9800

 eigenvalue-minimisations  :  6828
 total energy-change (2. order) :-0.5173011E+00  (-0.5164403E+00)
 number of electron      36.0000000 magnetization 
 augmentation part       36.0000000 magnetization 

 Free energy of the ion-electron system (eV)
  ---------------------------------------------------
  alpha Z        PSCENC =        90.42577596
  Ewald energy   TEWEN  =     -1146.88905665
  -Hartree energ DENC   =      -535.10238363
  -exchange      EXHF   =         0.00000000
  -V(xc)+E(xc)   XCENC  =       -72.59368150
  PAW double counting   =       813.77302396     -658.68146406
  entropy T*S    EENTRO =         0.00000000
  eigenvalues    EBANDS =       -80.04931503
  atomic energy  EATOM  =      1542.31022798
  Solvation  Ediel_sol  =         0.00000000
  ---------------------------------------------------
  free energy    TOTEN  =       -46.80687296 eV

  energy without entropy =      -46.80687296  energy(sigma->0) =      -46.80687296


--------------------------------------------------------------------------------------------------------




--------------------------------------- Iteration      1(   5)  ---------------------------------------


     EDDAV:  cpu time    2.8696: real time    2.8709
 BZINTS: Fermi energy:  3.875871; 36.000000 electrons
         Band energy: -80.062787;  BLOECHL correction:  0.000000
       DOS:  cpu time    0.0080: real time    0.0088
    CHARGE:  cpu time    0.1730: real time    0.1728
    MIXING:  cpu time    0.0010: real time    0.0012
    --------------------------------------------
      LOOP:  cpu time    3.0515: real time    3.0538

 eigenvalue-minimisations  :  6540
 total energy-change (2. order) :-0.1347189E-01  (-0.1346729E-01)
 number of electron      36.0000009 magnetization 
 augmentation part       -1.8906268 magnetization 

 Broyden mixing:
  rms(total) = 0.97336E+00    rms(broyden)= 0.97335E+00
  rms(prec ) = 0.12179E+01
  weight for this iteration     100.00

 Free energy of the ion-electron system (eV)
  ---------------------------------------------------
  alpha Z        PSCENC =        90.42577596
  Ewald energy   TEWEN  =     -1146.88905665
  -Hartree energ DENC   =      -535.10238363
  -exchange      EXHF   =         0.00000000
  -V(xc)+E(xc)   XCENC  =       -72.59368150
  PAW double counting   =       813.77302396     -658.68146406
  entropy T*S    EENTRO =         0.00000000
  eigenvalues    EBANDS =       -80.06278692
  atomic energy  EATOM  =      1542.31022798
  Solvation  Ediel_sol  =         0.00000000
  ---------------------------------------------------
  free energy    TOTEN  =       -46.82034485 eV

  energy without entropy =      -46.82034485  energy(sigma->0) =      -46.82034485


--------------------------------------------------------------------------------------------------------




--------------------------------------- Iteration      1(   6)  ---------------------------------------


    POTLOK:  cpu time    0.0260: real time    0.0289
    SETDIJ:  cpu time    0.0050: real time    0.0042
    EDDIAG:  cpu time    0.4859: real time    0.4868
  RMM-DIIS:  cpu time    1.9187: real time    1.9182
    ORTHCH:  cpu time    0.0540: real time    0.0542
 BZINTS: Fermi energy:  2.909504; 36.000000 electrons
         Band energy: -79.157240;  BLOECHL correction:  0.000000
       DOS:  cpu time    0.0100: real time    0.0102
    CHARGE:  cpu time    0.1720: real time    0.1721
    MIXING:  cpu time    0.0020: real time    0.0009
    --------------------------------------------
      LOOP:  cpu time    2.6736: real time    2.6755

 eigenvalue-minimisations  :  5454
 total energy-change (2. order) : 0.2390205E+01  (-0.2430186E+01)
 number of electron      36.0000006 magnetization 
 augmentation part       -0.8634450 magnetization 

 Broyden mixing:
  rms(total) = 0.33582E+00    rms(broyden)= 0.33582E+00
  rms(prec ) = 0.49115E+00
  weight for this iteration     100.00

 eigenvalues of (default mixing * dielectric matrix)
  average eigenvalue GAMMA=   0.8755
  0.8755

 Free energy of the ion-electron system (eV)
  ---------------------------------------------------
  alpha Z        PSCENC =        90.42577596
  Ewald energy   TEWEN  =     -1146.88905665
  -Hartree energ DENC   =      -533.60725445
  -exchange      EXHF   =         0.00000000
  -V(xc)+E(xc)   XCENC  =       -70.82518157
  PAW double counting   =       847.85271759     -694.54012892
  entropy T*S    EENTRO =         0.00000000
  eigenvalues    EBANDS =       -79.15723989
  atomic energy  EATOM  =      1542.31022798
  Solvation  Ediel_sol  =         0.00000000
  ---------------------------------------------------
  free energy    TOTEN  =       -44.43013994 eV

  energy without entropy =      -44.43013994  energy(sigma->0) =      -44.43013994


--------------------------------------------------------------------------------------------------------




--------------------------------------- Iteration      1(   7)  ---------------------------------------


    POTLOK:  cpu time    0.0250: real time    0.0281
    SETDIJ:  cpu time    0.0050: real time    0.0042
    EDDIAG:  cpu time    0.4839: real time    0.4841
  RMM-DIIS:  cpu time    1.9157: real time    1.9155
    ORTHCH:  cpu time    0.0540: real time    0.0541
 BZINTS: Fermi energy:  3.202164; 36.000000 electrons
         Band energy: -73.426277;  BLOECHL correction:  0.000000
       DOS:  cpu time    0.0090: real time    0.0089
    CHARGE:  cpu time    0.1700: real time    0.1698
    MIXING:  cpu time    0.0010: real time    0.0009
    --------------------------------------------
      LOOP:  cpu time    2.6636: real time    2.6656

 eigenvalue-minimisations  :  5371
 total energy-change (2. order) : 0.7348178E+00  (-0.1923944E+00)
 number of electron      36.0000007 magnetization 
 augmentation part       -1.1118921 magnetization 

 Broyden mixing:
  rms(total) = 0.17848E+00    rms(broyden)= 0.17848E+00
  rms(prec ) = 0.21334E+00
  weight for this iteration     100.00

 eigenvalues of (default mixing * dielectric matrix)
  average eigenvalue GAMMA=   1.4130
  0.7610  2.0650

 Free energy of the ion-electron system (eV)
  ---------------------------------------------------
  alpha Z        PSCENC =        90.42577596
  Ewald energy   TEWEN  =     -1146.88905665
  -Hartree energ DENC   =      -537.91560065
  -exchange      EXHF   =         0.00000000
  -V(xc)+E(xc)   XCENC  =       -71.01481432
  PAW double counting   =       881.22447387     -728.41005082
  entropy T*S    EENTRO =         0.00000000
  eigenvalues    EBANDS =       -73.42627749
  atomic energy  EATOM  =      1542.31022798
  Solvation  Ediel_sol  =         0.00000000
  ---------------------------------------------------
  free energy    TOTEN  =       -43.69532211 eV

  energy without entropy =      -43.69532211  energy(sigma->0) =      -43.69532211


--------------------------------------------------------------------------------------------------------




--------------------------------------- Iteration      1(   8)  ---------------------------------------


    POTLOK:  cpu time    0.0250: real time    0.0284
    SETDIJ:  cpu time    0.0050: real time    0.0042
    EDDIAG:  cpu time    0.4819: real time    0.4827
  RMM-DIIS:  cpu time    1.9817: real time    1.9809
    ORTHCH:  cpu time    0.0540: real time    0.0542
 BZINTS: Fermi energy:  3.357936; 36.000000 electrons
         Band energy: -68.455634;  BLOECHL correction:  0.000000
       DOS:  cpu time    0.0100: real time    0.0100
    CHARGE:  cpu time    0.1710: real time    0.1711
    MIXING:  cpu time    0.0010: real time    0.0016
    --------------------------------------------
      LOOP:  cpu time    2.7296: real time    2.7331

 eigenvalue-minimisations  :  5582
 total energy-change (2. order) : 0.6344498E-01  (-0.9005337E-01)
 number of electron      36.0000007 magnetization 
 augmentation part       -1.1702511 magnetization 

 Broyden mixing:
  rms(total) = 0.83212E-01    rms(broyden)= 0.83211E-01
  rms(prec ) = 0.11136E+00
  weight for this iteration     100.00

 eigenvalues of (default mixing * dielectric matrix)
  average eigenvalue GAMMA=   1.4854
  2.1116  1.5227  0.8219

 Free energy of the ion-electron system (eV)
  ---------------------------------------------------
  alpha Z        PSCENC =        90.42577596
  Ewald energy   TEWEN  =     -1146.88905665
  -Hartree energ DENC   =      -542.21655999
  -exchange      EXHF   =         0.00000000
  -V(xc)+E(xc)   XCENC  =       -70.63252407
  PAW double counting   =       931.93405674     -780.10816294
  entropy T*S    EENTRO =         0.00000000
  eigenvalues    EBANDS =       -68.45563418
  atomic energy  EATOM  =      1542.31022798
  Solvation  Ediel_sol  =         0.00000000
  ---------------------------------------------------
  free energy    TOTEN  =       -43.63187713 eV

  energy without entropy =      -43.63187713  energy(sigma->0) =      -43.63187713


--------------------------------------------------------------------------------------------------------




--------------------------------------- Iteration      1(   9)  ---------------------------------------


    POTLOK:  cpu time    0.0260: real time    0.0284
    SETDIJ:  cpu time    0.0040: real time    0.0042
    EDDIAG:  cpu time    0.4839: real time    0.4833
  RMM-DIIS:  cpu time    2.0617: real time    2.0613
    ORTHCH:  cpu time    0.0540: real time    0.0543
 BZINTS: Fermi energy:  3.237110; 36.000000 electrons
         Band energy: -68.924781;  BLOECHL correction:  0.000000
       DOS:  cpu time    0.0090: real time    0.0089
    CHARGE:  cpu time    0.1720: real time    0.1719
    MIXING:  cpu time    0.0010: real time    0.0010
    --------------------------------------------
      LOOP:  cpu time    2.8116: real time    2.8132

 eigenvalue-minimisations  :  5753
 total energy-change (2. order) : 0.1007376E-01  (-0.2972945E-01)
 number of electron      36.0000007 magnetization 
 augmentation part       -1.0443779 magnetization 

 Broyden mixing:
  rms(total) = 0.57371E-01    rms(broyden)= 0.57370E-01
  rms(prec ) = 0.80021E-01
  weight for this iteration     100.00

 eigenvalues of (default mixing * dielectric matrix)
  average eigenvalue GAMMA=   1.5253
  2.1467  2.1467  0.9039  0.9039

 Free energy of the ion-electron system (eV)
  ---------------------------------------------------
  alpha Z        PSCENC =        90.42577596
  Ewald energy   TEWEN  =     -1146.88905665
  -Hartree energ DENC   =      -541.82683800
  -exchange      EXHF   =         0.00000000
  -V(xc)+E(xc)   XCENC  =       -70.37363363
  PAW double counting   =       938.41398956     -786.75748800
  entropy T*S    EENTRO =         0.00000000
  eigenvalues    EBANDS =       -68.92478060
  atomic energy  EATOM  =      1542.31022798
  Solvation  Ediel_sol  =         0.00000000
  ---------------------------------------------------
  free energy    TOTEN  =       -43.62180337 eV

  energy without entropy =      -43.62180337  energy(sigma->0) =      -43.62180337


--------------------------------------------------------------------------------------------------------




--------------------------------------- Iteration      1(  10)  ---------------------------------------


    POTLOK:  cpu time    0.0250: real time    0.0304
    SETDIJ:  cpu time    0.0050: real time    0.0042
    EDDIAG:  cpu time    0.4829: real time    0.4832
  RMM-DIIS:  cpu time    2.0807: real time    2.0794
    ORTHCH:  cpu time    0.0550: real time    0.0559
 BZINTS: Fermi energy:  3.353527; 36.000000 electrons
         Band energy: -68.021928;  BLOECHL correction:  0.000000
       DOS:  cpu time    0.0110: real time    0.0111
    CHARGE:  cpu time    0.1690: real time    0.1695
    MIXING:  cpu time    0.0020: real time    0.0010
    --------------------------------------------
      LOOP:  cpu time    2.8306: real time    2.8346

 eigenvalue-minimisations  :  5806
 total energy-change (2. order) : 0.1634490E-01  (-0.6494592E-02)
 number of electron      36.0000007 magnetization 
 augmentation part       -1.1050171 magnetization 

 Broyden mixing:
  rms(total) = 0.71743E-02    rms(broyden)= 0.71738E-02
  rms(prec ) = 0.91520E-02
  weight for this iteration     100.00

 eigenvalues of (default mixing * dielectric matrix)
  average eigenvalue GAMMA=   1.4308
  2.4444  1.6415  0.8894  0.8894  1.2893

 Free energy of the ion-electron system (eV)
  ---------------------------------------------------
  alpha Z        PSCENC =        90.42577596
  Ewald energy   TEWEN  =     -1146.88905665
  -Hartree energ DENC   =      -542.61776396
  -exchange      EXHF   =         0.00000000
  -V(xc)+E(xc)   XCENC  =       -70.42654975
  PAW double counting   =       944.37725842     -792.76342207
  entropy T*S    EENTRO =         0.00000000
  eigenvalues    EBANDS =       -68.02192841
  atomic energy  EATOM  =      1542.31022798
  Solvation  Ediel_sol  =         0.00000000
  ---------------------------------------------------
  free energy    TOTEN  =       -43.60545847 eV

  energy without entropy =      -43.60545847  energy(sigma->0) =      -43.60545847


--------------------------------------------------------------------------------------------------------




--------------------------------------- Iteration      1(  11)  ---------------------------------------


    POTLOK:  cpu time    0.0260: real time    0.0272
    SETDIJ:  cpu time    0.0040: real time    0.0042
    EDDIAG:  cpu time    0.4849: real time    0.4850
  RMM-DIIS:  cpu time    2.2167: real time    2.2161
    ORTHCH:  cpu time    0.0540: real time    0.0541
 BZINTS: Fermi energy:  3.353458; 36.000000 electrons
         Band energy: -67.890226;  BLOECHL correction:  0.000000
       DOS:  cpu time    0.0090: real time    0.0101
    CHARGE:  cpu time    0.1730: real time    0.1718
    MIXING:  cpu time    0.0010: real time    0.0011
    --------------------------------------------
      LOOP:  cpu time    2.9685: real time    2.9695

 eigenvalue-minimisations  :  6273
 total energy-change (2. order) :-0.1403030E-03  (-0.3301482E-03)
 number of electron      36.0000007 magnetization 
 augmentation part       -1.0999584 magnetization 

 Broyden mixing:
  rms(total) = 0.29553E-02    rms(broyden)= 0.29553E-02
  rms(prec ) = 0.35914E-02
  weight for this iteration     100.00

 eigenvalues of (default mixing * dielectric matrix)
  average eigenvalue GAMMA=   1.6579
  2.8791  2.5141  1.8115  0.8967  0.8967  0.9495

 Free energy of the ion-electron system (eV)
  ---------------------------------------------------
  alpha Z        PSCENC =        90.42577596
  Ewald energy   TEWEN  =     -1146.88905665
  -Hartree energ DENC   =      -542.76686149
  -exchange      EXHF   =         0.00000000
  -V(xc)+E(xc)   XCENC  =       -70.40157846
  PAW double counting   =       944.68153925     -793.07541934
  entropy T*S    EENTRO =         0.00000000
  eigenvalues    EBANDS =       -67.89022603
  atomic energy  EATOM  =      1542.31022798
  Solvation  Ediel_sol  =         0.00000000
  ---------------------------------------------------
  free energy    TOTEN  =       -43.60559877 eV

  energy without entropy =      -43.60559877  energy(sigma->0) =      -43.60559877


--------------------------------------------------------------------------------------------------------




--------------------------------------- Iteration      1(  12)  ---------------------------------------


    POTLOK:  cpu time    0.0250: real time    0.0283
    SETDIJ:  cpu time    0.0050: real time    0.0043
    EDDIAG:  cpu time    0.4829: real time    0.4835
  RMM-DIIS:  cpu time    2.1647: real time    2.1639
    ORTHCH:  cpu time    0.0540: real time    0.0541
 BZINTS: Fermi energy:  3.359048; 36.000000 electrons
         Band energy: -67.714772;  BLOECHL correction:  0.000000
       DOS:  cpu time    0.0100: real time    0.0100
    CHARGE:  cpu time    0.1710: real time    0.1708
    MIXING:  cpu time    0.0010: real time    0.0011
    --------------------------------------------
      LOOP:  cpu time    2.9136: real time    2.9161

 eigenvalue-minimisations  :  6169
 total energy-change (2. order) :-0.1358726E-03  (-0.4801585E-04)
 number of electron      36.0000007 magnetization 
 augmentation part       -1.0989552 magnetization 

 Broyden mixing:
  rms(total) = 0.14876E-02    rms(broyden)= 0.14876E-02
  rms(prec ) = 0.18292E-02
  weight for this iteration     100.00

 eigenvalues of (default mixing * dielectric matrix)
  average eigenvalue GAMMA=   1.5995
  2.9037  2.3625  1.6062  1.6062  0.8963  0.8963  0.9250

 Free energy of the ion-electron system (eV)
  ---------------------------------------------------
  alpha Z        PSCENC =        90.42577596
  Ewald energy   TEWEN  =     -1146.88905665
  -Hartree energ DENC   =      -542.96538802
  -exchange      EXHF   =         0.00000000
  -V(xc)+E(xc)   XCENC  =       -70.39221378
  PAW double counting   =       944.40371829     -792.78402596
  entropy T*S    EENTRO =         0.00000000
  eigenvalues    EBANDS =       -67.71477247
  atomic energy  EATOM  =      1542.31022798
  Solvation  Ediel_sol  =         0.00000000
  ---------------------------------------------------
  free energy    TOTEN  =       -43.60573464 eV

  energy without entropy =      -43.60573464  energy(sigma->0) =      -43.60573464


--------------------------------------------------------------------------------------------------------




--------------------------------------- Iteration      1(  13)  ---------------------------------------


    POTLOK:  cpu time    0.0250: real time    0.0280
    SETDIJ:  cpu time    0.0050: real time    0.0042
    EDDIAG:  cpu time    0.4839: real time    0.4838
  RMM-DIIS:  cpu time    2.2057: real time    2.2053
    ORTHCH:  cpu time    0.0540: real time    0.0542
 BZINTS: Fermi energy:  3.361467; 36.000000 electrons
         Band energy: -67.714499;  BLOECHL correction:  0.000000
       DOS:  cpu time    0.0090: real time    0.0100
    CHARGE:  cpu time    0.1720: real time    0.1719
    MIXING:  cpu time    0.0020: real time    0.0011
    --------------------------------------------
      LOOP:  cpu time    2.9566: real time    2.9584

 eigenvalue-minimisations  :  6377
 total energy-change (2. order) :-0.1365350E-04  (-0.2398556E-04)
 number of electron      36.0000007 magnetization 
 augmentation part       -1.1017284 magnetization 

 Broyden mixing:
  rms(total) = 0.17396E-02    rms(broyden)= 0.17396E-02
  rms(prec ) = 0.23362E-02
  weight for this iteration     100.00

 eigenvalues of (default mixing * dielectric matrix)
  average eigenvalue GAMMA=   1.7325
  3.2847  2.5893  2.5893  1.6353  1.1157  0.8840  0.8840  0.8782

 Free energy of the ion-electron system (eV)
  ---------------------------------------------------
  alpha Z        PSCENC =        90.42577596
  Ewald energy   TEWEN  =     -1146.88905665
  -Hartree energ DENC   =      -542.96152847
  -exchange      EXHF   =         0.00000000
  -V(xc)+E(xc)   XCENC  =       -70.39504835
  PAW double counting   =       944.52793844     -792.90955804
  entropy T*S    EENTRO =         0.00000000
  eigenvalues    EBANDS =       -67.71449917
  atomic energy  EATOM  =      1542.31022798
  Solvation  Ediel_sol  =         0.00000000
  ---------------------------------------------------
  free energy    TOTEN  =       -43.60574830 eV

  energy without entropy =      -43.60574830  energy(sigma->0) =      -43.60574830


--------------------------------------------------------------------------------------------------------




--------------------------------------- Iteration      1(  14)  ---------------------------------------


    POTLOK:  cpu time    0.0250: real time    0.0279
    SETDIJ:  cpu time    0.0050: real time    0.0042
    EDDIAG:  cpu time    0.4829: real time    0.4839
  RMM-DIIS:  cpu time    1.6807: real time    1.6796
    ORTHCH:  cpu time    0.0540: real time    0.0543
 BZINTS: Fermi energy:  3.298560; 36.000000 electrons
         Band energy: -67.729919;  BLOECHL correction: -0.000000
       DOS:  cpu time    0.0090: real time    0.0088
    CHARGE:  cpu time    0.1720: real time    0.1715
    MIXING:  cpu time    0.0010: real time    0.0012
    --------------------------------------------
      LOOP:  cpu time    2.4296: real time    2.4314

 eigenvalue-minimisations  :  4678
 total energy-change (2. order) : 0.1132267E-04  (-0.5494015E-05)
 number of electron      36.0000007 magnetization 
 augmentation part       -1.1002534 magnetization 

 Broyden mixing:
  rms(total) = 0.28575E-03    rms(broyden)= 0.28573E-03
  rms(prec ) = 0.33353E-03
  weight for this iteration     100.00

 eigenvalues of (default mixing * dielectric matrix)
  average eigenvalue GAMMA=   1.6009
  3.1323  2.6160  2.3711  1.5705  1.1451  0.8781  0.8781  0.9086  0.9086

 Free energy of the ion-electron system (eV)
  ---------------------------------------------------
  alpha Z        PSCENC =        90.42577596
  Ewald energy   TEWEN  =     -1146.88905665
  -Hartree energ DENC   =      -542.94823454
  -exchange      EXHF   =         0.00000000
  -V(xc)+E(xc)   XCENC  =       -70.39259792
  PAW double counting   =       944.37985736     -792.76179038
  entropy T*S    EENTRO =         0.00000000
  eigenvalues    EBANDS =       -67.72991880
  atomic energy  EATOM  =      1542.31022798
  Solvation  Ediel_sol  =         0.00000000
  ---------------------------------------------------
  free energy    TOTEN  =       -43.60573697 eV

  energy without entropy =      -43.60573697  energy(sigma->0) =      -43.60573697


--------------------------------------------------------------------------------------------------------




--------------------------------------- Iteration      1(  15)  ---------------------------------------


    POTLOK:  cpu time    0.0250: real time    0.0290
    SETDIJ:  cpu time    0.0050: real time    0.0042
    EDDIAG:  cpu time    0.4819: real time    0.4822
  RMM-DIIS:  cpu time    1.4078: real time    1.4074
    ORTHCH:  cpu time    0.0540: real time    0.0541
 BZINTS: Fermi energy:  3.299221; 36.000000 electrons
         Band energy: -67.725629;  BLOECHL correction:  0.000000
       DOS:  cpu time    0.0080: real time    0.0088
    --------------------------------------------
      LOOP:  cpu time    1.9817: real time    1.9857

 eigenvalue-minimisations  :  3747
 total energy-change (2. order) :-0.5274001E-06  (-0.1102414E-05)
 number of electron      36.0000007 magnetization 
 augmentation part       -1.1002534 magnetization 

 Free energy of the ion-electron system (eV)
  ---------------------------------------------------
  alpha Z        PSCENC =        90.42577596
  Ewald energy   TEWEN  =     -1146.88905665
  -Hartree energ DENC   =      -542.95342679
  -exchange      EXHF   =         0.00000000
  -V(xc)+E(xc)   XCENC  =       -70.39240050
  PAW double counting   =       944.34244042     -792.72366882
  entropy T*S    EENTRO =         0.00000000
  eigenvalues    EBANDS =       -67.72562911
  atomic energy  EATOM  =      1542.31022798
  Solvation  Ediel_sol  =         0.00000000
  ---------------------------------------------------
  free energy    TOTEN  =       -43.60573750 eV

  energy without entropy =      -43.60573750  energy(sigma->0) =      -43.60573750


--------------------------------------------------------------------------------------------------------




 average (electrostatic) potential at core
  the test charge radii are     1.2296  0.9698
  (the norm of the test charge is              1.0000)
       1 -40.3325       2 -40.3325       3 -88.1703       4 -88.1703       5 -88.1703
       6 -88.1703
 
 
 
[...]
      2      -9.6361      2.00000
      3      -9.1013      2.00000
      4      -9.1013      2.00000
      5      -1.8793      2.00000
      6      -1.8793      2.00000
      7      -0.9713      2.00000
      8      -0.9713      2.00000
      9      -0.6199      2.00000
     10      -0.6199      2.00000
     11      -0.1331      2.00000
     12      -0.1331      2.00000
     13       0.9949      2.00000
     14       0.9949      2.00000
     15       1.8899      2.00000
     16       1.8899      2.00000
     17       2.3309      2.00000
     18       2.3309      2.00000
     19       5.0877      0.00000
     20       5.0879      0.00000
     21       5.5852      0.00000
     22       5.8692      0.00000

 k-point   102 :       0.2778    0.1667    0.5000
  band No.  band energies     occupation 
      1      -9.3693      2.00000
      2      -9.3693      2.00000
      3      -8.9753      2.00000
      4      -8.9753      2.00000
      5      -2.0269      2.00000
      6      -2.0269      2.00000
      7      -1.4032      2.00000
      8      -1.4032      2.00000
      9      -0.6024      2.00000
     10      -0.6024      2.00000
     11      -0.1236      2.00000
     12      -0.1236      2.00000
     13       0.8301      2.00000
     14       0.8301      2.00000
     15       1.6448      2.00000
     16       1.6448      2.00000
     17       2.4464      2.00000
     18       2.4464      2.00000
     19       5.2494      0.00000
     20       5.2495      0.00000
     21       5.6441      0.00000
     22       5.6804      0.00000

 k-point   103 :       0.3333    0.1667    0.5000
  band No.  band energies     occupation 
      1      -9.1566      2.00000
      2      -9.1566      2.00000
      3      -8.8755      2.00000
      4      -8.8755      2.00000
      5      -2.1442      2.00000
      6      -2.1442      2.00000
      7      -1.7231      2.00000
      8      -1.7231      2.00000
      9      -0.6989      2.00000
     10      -0.6989      2.00000
     11      -0.0653      2.00000
     12      -0.0653      2.00000
     13       0.7752      2.00000
     14       0.7752      2.00000
     15       1.4090      2.00000
     16       1.4090      2.00000
     17       2.6265      2.00000
     18       2.6265      2.00000
     19       5.2817      0.00000
     20       5.2817      0.00000
     21       5.8327      0.00000
     22       5.8521      0.00000

 k-point   104 :       0.3889    0.1667    0.5000
  band No.  band energies     occupation 
      1      -9.0374      2.00000
      2      -9.0374      2.00000
      3      -8.8199      2.00000
      4      -8.8199      2.00000
      5      -2.2052      2.00000
      6      -2.2052      2.00000
      7      -1.8926      2.00000
      8      -1.8926      2.00000
      9      -0.8013      2.00000
     10      -0.8013      2.00000
     11      -0.0088      2.00000
     12      -0.0088      2.00000
     13       0.7757      2.00000
     14       0.7758      2.00000
     15       1.2582      2.00000
     16       1.2582      2.00000
     17       2.7779      2.00000
     18       2.7779      2.00000
     19       5.2097      0.00000
     20       5.2097      0.00000
     21       6.0452      0.00000
     22       6.4937      0.00000

 k-point   105 :       0.2222    0.2222    0.5000
  band No.  band energies     occupation 
      1      -9.3830      2.00000
      2      -9.3830      2.00000
      3      -8.9789      2.00000
      4      -8.9789      2.00000
      5      -1.9488      2.00000
      6      -1.9488      2.00000
      7      -1.3843      2.00000
      8      -1.3843      2.00000
      9      -0.5184      2.00000
     10      -0.5184      2.00000
     11      -0.1624      2.00000
     12      -0.1623      2.00000
     13       0.6154      2.00000
     14       0.6154      2.00000
     15       1.7129      2.00000
     16       1.7129      2.00000
     17       2.4344      2.00000
     18       2.4344      2.00000
     19       5.2332      0.00000
     20       5.2332      0.00000
     21       5.6523      0.00000
     22       5.7213      0.00000

 k-point   106 :       0.2778    0.2222    0.5000
  band No.  band energies     occupation 
      1      -9.1631      2.00000
      2      -9.1631      2.00000
      3      -8.8715      2.00000
      4      -8.8715      2.00000
      5      -1.9772      2.00000
      6      -1.9772      2.00000
      7      -1.7445      2.00000
      8      -1.7445      2.00000
      9      -0.5226      2.00000
     10      -0.5226      2.00000
     11      -0.0875      2.00000
     12      -0.0875      2.00000
     13       0.3103      2.00000
     14       0.3103      2.00000
     15       1.4717      2.00000
     16       1.4717      2.00000
     17       2.6088      2.00000
     18       2.6088      2.00000
     19       5.2538      0.00000
     20       5.2540      0.00000
     21       5.8573      0.00000
     22       6.1221      0.00000

 k-point   107 :       0.3333    0.2222    0.5000
  band No.  band energies     occupation 
      1      -9.0121      2.00000
      2      -9.0121      2.00000
      3      -8.7972      2.00000
      4      -8.7972      2.00000
      5      -1.9844      2.00000
      6      -1.9844      2.00000
      7      -1.9567      2.00000
      8      -1.9567      2.00000
      9      -0.6731      2.00000
     10      -0.6731      2.00000
     11       0.0220      2.00000
     12       0.0220      2.00000
     13       0.1936      2.00000
     14       0.1936      2.00000
     15       1.2492      2.00000
     16       1.2492      2.00000
     17       2.8113      2.00000
     18       2.8113      2.00000
     19       5.1094      0.00000
     20       5.1094      0.00000
     21       6.1789      0.00000
     22       6.2951      0.00000

 k-point   108 :       0.3889    0.2222    0.5000
  band No.  band energies     occupation 
      1      -8.9580      2.00000
      2      -8.9580      2.00000
      3      -8.7705      2.00000
      4      -8.7705      2.00000
      5      -2.0665      2.00000
      6      -2.0665      2.00000
      7      -1.9372      2.00000
      8      -1.9372      2.00000
      9      -0.7671      2.00000
     10      -0.7671      2.00000
     11       0.0785      2.00000
     12       0.0785      2.00000
     13       0.1758      2.00000
     14       0.1758      2.00000
     15       1.1521      2.00000
     16       1.1521      2.00000
     17       2.9103      2.00000
     18       2.9103      2.00000
     19       5.0228      0.00000
     20       5.0228      0.00000
     21       6.2854      0.00000
     22       6.3130      0.00000

 k-point   109 :       0.2778    0.2778    0.5000
  band No.  band energies     occupation 
      1      -9.0037      2.00000
      2      -9.0037      2.00000
      3      -8.7890      2.00000
      4      -8.7890      2.00000
      5      -2.0167      2.00000
      6      -2.0167      2.00000
      7      -1.8382      2.00000
      8      -1.8382      2.00000
      9      -0.5232      2.00000
     10      -0.5232      2.00000
     11      -0.1538      2.00000
     12      -0.1538      2.00000
     13       0.0416      2.00000
     14       0.0416      2.00000
     15       1.2465      2.00000
     16       1.2465      2.00000
     17       2.8221      2.00000
     18       2.8221      2.00000
     19       5.0666      0.00000
     20       5.0666      0.00000
     21       6.1666      0.00000
     22       6.1881      0.00000

 k-point   110 :       0.3333    0.2778    0.5000
  band No.  band energies     occupation 
      1      -8.9165      2.00000
      2      -8.9165      2.00000
      3      -8.7429      2.00000
      4      -8.7429      2.00000
      5      -2.1649      2.00000
      6      -2.1649      2.00000
      7      -1.6630      2.00000
      8      -1.6630      2.00000
      9      -0.7347      2.00000
     10      -0.7347      2.00000
     11      -0.2995      2.00000
     12      -0.2995      2.00000
     13       0.1672      2.00000
     14       0.1672      2.00000
     15       1.0651      2.00000
     16       1.0652      2.00000
     17       3.0043      2.00000
     18       3.0043      2.00000
     19       4.8745      0.00000
     20       4.8745      0.00000
     21       6.1758      0.00000
     22       6.1784      0.00000

 k-point   111 :       0.3333    0.3333    0.5000
  band No.  band energies     occupation 
      1      -8.8832      2.00000
      2      -8.8832      2.00000
      3      -8.7234      2.00000
      4      -8.7234      2.00000
      5      -2.2296      2.00000
      6      -2.2296      2.00000
      7      -1.4208      2.00000
      8      -1.4208      2.00000
      9      -0.9267      2.00000
     10      -0.9267      2.00000
     11      -0.4405      2.00000
     12      -0.4405      2.00000
     13       0.2466      2.00000
     14       0.2466      2.00000
     15       0.9707      2.00000
     16       0.9707      2.00000
     17       3.0982      2.00000
     18       3.0982      2.00000
     19       4.7586      0.00000
     20       4.7586      0.00000
     21       6.1363      0.00000
     22       6.1371      0.00000


--------------------------------------------------------------------------------------------------------


 soft charge-density along one line, spin component           1
         0         1         2         3         4         5         6         7         8         9
 total charge-density along one line
 
 pseudopotential strength for first ion, spin component:           1
 -8.238  -0.000   0.000   0.000   0.000  -0.074   0.000  -0.000
 -0.000  -8.239   0.000  -0.000  -0.000   0.000  -0.074  -0.000
  0.000   0.000  -8.218  -0.000  -0.000  -0.000  -0.000  -0.075
  0.000  -0.000  -0.000  -8.239  -0.000  -0.000   0.000   0.000
  0.000  -0.000  -0.000  -0.000  -8.238  -0.000   0.000   0.000
 -0.074   0.000  -0.000  -0.000  -0.000   0.112  -0.000   0.000
  0.000  -0.074  -0.000   0.000   0.000  -0.000   0.112   0.000
 -0.000  -0.000  -0.075   0.000   0.000   0.000   0.000   0.112
 -0.000   0.000   0.000  -0.074   0.000   0.000  -0.000  -0.000
 -0.000   0.000   0.000   0.000  -0.074   0.000  -0.000  -0.000
  0.000  -0.000  -0.005   0.000  -0.000  -0.000   0.000   0.000
 -0.000   0.000   0.001  -0.000   0.000   0.000  -0.000  -0.000
 -0.000   0.000  -0.000  -0.000  -0.007   0.000  -0.000   0.000
 -0.000   0.000   0.000  -0.000  -0.000  -0.000  -0.000  -0.000
 -0.007  -0.000   0.000   0.000  -0.000  -0.000  -0.000  -0.000
  0.000  -0.000   0.000   0.000   0.004  -0.000   0.000  -0.000
  0.000  -0.000  -0.000   0.000   0.000  -0.000   0.000   0.000
  0.004   0.000  -0.000  -0.000   0.000   0.000  -0.000   0.000
 total augmentation occupancy for first ion, spin component:           1
  0.965   0.000  -0.000  -0.000  -0.000   0.601   0.000  -0.000   0.000  -0.000   0.000  -0.000   0.000   0.000  -0.065  -0.000
  0.000   0.907   0.000   0.000   0.000  -0.000   0.839  -0.000   0.000   0.000  -0.000   0.000   0.000  -0.000   0.000   0.000
 -0.000   0.000   1.029   0.000   0.000  -0.000   0.000   0.501  -0.000   0.000   0.111  -0.019  -0.000  -0.000   0.000   0.000
  0.000   0.000  -0.000   0.907  -0.000  -0.000   0.000   0.000   0.839  -0.000   0.000  -0.000  -0.000  -0.000  -0.000   0.000
 -0.000  -0.000   0.000  -0.000   0.965  -0.000   0.000   0.000  -0.000   0.601   0.000  -0.000  -0.065  -0.000  -0.000   0.007
  0.601  -0.000  -0.000   0.000  -0.000   0.678   0.000  -0.000  -0.000  -0.000   0.000  -0.000   0.000   0.000  -0.136  -0.000
 -0.000   0.839   0.000   0.000   0.000   0.000   1.081   0.000   0.000   0.000   0.000  -0.000  -0.000   0.000   0.000  -0.000
 -0.000  -0.000   0.501   0.000   0.000  -0.000   0.000   0.476  -0.000   0.000   0.059  -0.021  -0.000   0.000   0.000   0.000
 -0.000   0.000  -0.000   0.839   0.000   0.000   0.000   0.000   1.081   0.000   0.000   0.000   0.000  -0.000   0.000  -0.000
 -0.000  -0.000   0.000  -0.000   0.601  -0.000   0.000   0.000  -0.000   0.678   0.000  -0.000  -0.136  -0.000  -0.000   0.023
 -0.000   0.000   0.111   0.000   0.000   0.000  -0.000   0.059   0.000   0.000   1.207  -0.185  -0.000  -0.000   0.000  -0.000
  0.000   0.000  -0.019  -0.000  -0.000  -0.000   0.000  -0.021   0.000  -0.000  -0.185   0.042   0.000  -0.000   0.000  -0.000
  0.000   0.000  -0.000  -0.000  -0.065   0.000   0.000  -0.000  -0.000  -0.136   0.000  -0.000   0.217  -0.000   0.000  -0.032
 -0.000  -0.000  -0.000   0.000   0.000  -0.000   0.000   0.000   0.000   0.000  -0.000  -0.000  -0.000   0.264   0.000   0.000
 -0.065  -0.000   0.000  -0.000  -0.000  -0.136   0.000   0.000   0.000  -0.000   0.000   0.000   0.000   0.000   0.217  -0.000
 -0.000  -0.000   0.000  -0.000   0.007  -0.000   0.000   0.000   0.000   0.023   0.000  -0.000  -0.032   0.000  -0.000   0.005
 -0.000  -0.000  -0.000   0.000  -0.000  -0.000  -0.000   0.000  -0.000  -0.000   0.000   0.000   0.000  -0.038   0.000  -0.000
  0.007   0.000  -0.000   0.000   0.000   0.023  -0.000  -0.000   0.000   0.000   0.000  -0.000  -0.000   0.000  -0.032   0.000


------------------------ aborting loop because EDIFF is reached ----------------------------------------


    CHARGE:  cpu time    0.1720: real time    0.1729
    FORLOC:  cpu time    0.0030: real time    0.0029
    FORNL :  cpu time    0.5909: real time    0.5904
    STRESS:  cpu time    1.6567: real time    1.6564
    FORCOR:  cpu time    0.0280: real time    0.0291
    FORHAR:  cpu time    0.0070: real time    0.0063
    MIXING:  cpu time    0.0010: real time    0.0012
    OFIELD:  cpu time    0.0000: real time    0.0000

  DFT-D2 method for vdW energy calculation
  -------------------------------------------------------------------

  Parameters of vdW forcefield:
         C6(Jnm^6/mol)     R0(A)
   -----------------------------
   Mo      24.670          1.639
   S        5.570          1.683

  IVDW =   1
  VDW_RADIUS =    50.000 A
  VDW_S6 =     0.750
  VDW_SR =     1.000
  VDW_D =    20.000
  LVDW_EWALD = F

  Number of pair interactions contributing to vdW energy:   84128
  Edisp (eV):   -1.33129
    FORVDW:  cpu time    0.0210: real time    0.0261

  FORCE on cell =-STRESS in cart. coord.  units (eV):
  Direction    XX          YY          ZZ          XY          YZ          ZX
  --------------------------------------------------------------------------------------
  Alpha Z    90.42578    90.42578    90.42578
  Ewald     -12.90873   -12.90785 -1121.07429     0.00038     0.00000     0.00025
  Hartree   466.59200   466.59202  -390.21360     0.00003    -0.00000    -0.00001
  E(xc)    -140.60515  -140.60516  -141.79649    -0.00001    -0.00000    -0.00000
  Local   -1080.53244 -1080.53311   872.56584    -0.00042    -0.00000    -0.00011
  n-local   254.48283   251.41587   263.35451    -0.53139     0.00260     0.00248
  augment   -51.13369   -51.13354   -53.33509     0.00014     0.00000    -0.00001
  Kinetic   472.27775   476.97227   479.58208   -15.05097     0.00417     0.00427
  Fock        0.00000     0.00000     0.00000     0.00000     0.00000     0.00000
  vdW         0.17103     0.17103    -0.86546     0.00000     0.00000    -0.00000
  -------------------------------------------------------------------------------------
  Total      -0.41666    -0.41666    -1.35673     0.00000     0.00000     0.00000
  in kB      -5.09008    -5.09008   -16.57414     0.00000     0.00000     0.00000
  external pressure =       -8.92 kB  Pullay stress =        0.00 kB


 VOLUME and BASIS-vectors are now :
 -----------------------------------------------------------------------------
  energy-cutoff  :      450.00
  volume of cell :      131.15
      direct lattice vectors                 reciprocal lattice vectors
     3.190315730  0.000000000  0.000000000     0.313448600  0.180969634  0.000000000
    -1.595157865  2.762894468  0.000000000     0.000000000  0.361939267  0.000000000
     0.000000000  0.000000000 14.879004300     0.000000000  0.000000000  0.067208798

  length of vectors
     3.190315730  3.190315730 14.879004300     0.361939267  0.361939267  0.067208798


 FORCES acting on ions
    electron-ion (+dipol)            ewald-force                    non-local-force                 convergence-correction
 -----------------------------------------------------------------------------------------------
   0.473E-04 -.345E-04 -.100E-04   0.928E-04 -.107E-03 0.288E-09   0.191E-16 0.347E-17 0.000E+00   0.565E-08 -.664E-08 -.382E-09
   0.659E-04 -.309E-04 -.100E-04   -.928E-04 0.107E-03 -.288E-09   -.226E-16 -.347E-17 0.000E+00   0.358E-08 0.131E-08 -.383E-09
   0.525E-03 -.305E-03 -.242E+03   0.865E-04 -.537E-04 0.247E+03   0.126E-16 -.191E-16 -.480E+01   0.112E-07 -.689E-08 0.608E-02
   -.117E-02 0.679E-03 0.242E+03   -.865E-04 0.537E-04 -.247E+03   -.273E-16 0.191E-16 0.480E+01   -.283E-07 0.168E-07 -.608E-02
   0.523E-03 0.689E-03 -.242E+03   -.638E-05 0.537E-04 0.247E+03   -.911E-17 -.260E-16 -.480E+01   0.127E-07 0.154E-07 0.608E-02
   -.121E-02 -.292E-03 0.242E+03   0.638E-05 -.537E-04 -.247E+03   0.191E-16 0.260E-16 0.480E+01   -.249E-07 -.834E-08 -.608E-02
 -----------------------------------------------------------------------------------------------
   -.122E-02 0.706E-03 -.112E-04   -.561E-14 0.109E-13 0.284E-13   -.824E-17 0.000E+00 0.000E+00   -.201E-07 0.116E-07 -.762E-09
 
 
 POSITION                                       TOTAL-FORCE (eV/Angst)
 -----------------------------------------------------------------------------------
     -0.00000      1.84193      3.71975        -0.000000      0.000000      0.000000
      1.59516      0.92096     11.15925        -0.000000      0.000000      0.000000
     -0.00000      1.84193     12.72414        -0.000000     -0.000000     -0.085295
      1.59516      0.92096      2.15487         0.000000      0.000000      0.085295
      1.59516      0.92096      5.28464         0.000000      0.000000     -0.085295
      0.00000      1.84193      9.59437        -0.000000     -0.000000      0.085295
 -----------------------------------------------------------------------------------
    total drift:                               -0.001223      0.000706     -0.000011


--------------------------------------------------------------------------------------------------------



  FREE ENERGIE OF THE ION-ELECTRON SYSTEM (eV)
  ---------------------------------------------------
  free  energy   TOTEN  =       -44.93702452 eV

  energy  without entropy=      -44.93702452  energy(sigma->0) =      -44.93702452
 


--------------------------------------------------------------------------------------------------------


    POTLOK:  cpu time    0.0300: real time    0.0300


--------------------------------------------------------------------------------------------------------


     LOOP+:  cpu time   43.8963: real time   44.0638
    4ORBIT:  cpu time    0.0000: real time    0.0000
 BZINTS: Fermi energy:  3.299221; 36.000000 electrons
         Band energy: -67.725629;  BLOECHL correction:  0.000000

 total amount of memory used by VASP MPI-rank0   110831. kBytes
=======================================================================

   base      :      30000. kBytes
   nonl-proj :      46300. kBytes
   fftplans  :       2162. kBytes
   grid      :       3449. kBytes
   one-center:         46. kBytes
   wavefun   :      28874. kBytes
 
  
  
 General timing and accounting informations for this job:
 ========================================================
  
                  Total CPU time used (sec):       45.278
                            User time (sec):       45.059
                          System time (sec):        0.219
                         Elapsed time (sec):       46.016
  
                   Maximum memory used (kb):       97984.
                   Average memory used (kb):           0.
  
                          Minor page faults:        24799
                          Major page faults:          130
                 Voluntary context switches:         2420
