perl: warning: Setting locale failed.
perl: warning: Please check that your locale settings:
	LANGUAGE = (unset),
	LC_ALL = (unset),
	LC_CTYPE = "UTF-8",
	LANG = "en_US.iso885915"
    are supported and installed on your system.
perl: warning: Falling back to the standard locale ("C").
Starting job 28531733 ("jobname") on c14-15 at Fri Nov 8 10:41:16 CET 2019
 running on    4 total cores
 distrk:  each k-point on    4 cores,    1 groups
 distr:  one band on    2 cores,    2 groups
 using from now: INCAR     
 vasp.5.4.4.18Apr17-6-g9f103f2a35 (build Jun 30 2017 11:15:00) complex          
  
 POSCAR found type information on POSCAR  Mo S 
 POSCAR found :  2 types and       6 ions
 scaLAPACK will be used
 LDA part: xc-table for Pade appr. of Perdew
 POSCAR, INCAR and KPOINTS ok, starting setup
 FFT: planning ...
 WAVECAR not read
 WARNING: random wavefunctions but no delay for mixing, default for NELMDL
 entering main loop
       N       E                     dE             d eps       ncg     rms          rms(c)
DAV:   1     0.244054768441E+03    0.24405E+03   -0.17876E+04  4884   0.169E+03
DAV:   2    -0.236080028465E+02   -0.26766E+03   -0.26052E+03  6560   0.304E+02
DAV:   3    -0.461336449392E+02   -0.22526E+02   -0.22396E+02  6494   0.842E+01
DAV:   4    -0.468054258434E+02   -0.67178E+00   -0.67060E+00  6692   0.155E+01
DAV:   5    -0.468244876926E+02   -0.19062E-01   -0.19056E-01  6586   0.258E+00    0.973E+00
RMM:   6    -0.444340323518E+02    0.23905E+01   -0.24249E+01  5457   0.197E+01    0.335E+00
RMM:   7    -0.437004606262E+02    0.73357E+00   -0.19221E+00  5382   0.564E+00    0.178E+00
RMM:   8    -0.436361502959E+02    0.64310E-01   -0.88946E-01  5586   0.336E+00    0.825E-01
RMM:   9    -0.436269145122E+02    0.92358E-02   -0.29411E-01  5752   0.229E+00    0.576E-01
RMM:  10    -0.436103667179E+02    0.16548E-01   -0.64030E-02  5801   0.110E+00    0.660E-02
RMM:  11    -0.436105750337E+02   -0.20832E-03   -0.33897E-03  6314   0.224E-01    0.290E-02
RMM:  12    -0.436107098272E+02   -0.13479E-03   -0.45559E-04  6163   0.109E-01    0.146E-02
RMM:  13    -0.436107251314E+02   -0.15304E-04   -0.24403E-04  6424   0.610E-02    0.177E-02
RMM:  14    -0.436107133620E+02    0.11769E-04   -0.55922E-05  4702   0.338E-02    0.282E-03
RMM:  15    -0.436107139752E+02   -0.61313E-06   -0.12049E-05  3767   0.156E-02
 Error reading item 'IVDW' from file INCAR
   1 F= -.43610714E+02 E0= -.43610714E+02  d E =-.225717E-08

Currently Loaded Modulefiles:
  1) Anaconda3/5.1.0       3) vesta/3.3.8           5) intel/2016.1
  2) gnuplot/5.0.4         4) imagemagick/6.7.9-0   6) vasp/5.4.1.Feb16

Job script resource usage:
       JobID  MaxVMSize     MaxRSS 
------------ ---------- ---------- 
28531733.ba+    499284K      5920K 

Job step resource usage:
       JobID    JobName  AllocCPUS  MaxVMSize     MaxRSS    Elapsed ExitCode 
------------ ---------- ---------- ---------- ---------- ---------- -------- 
28531733        jobname          4                         00:01:17      0:0 
28531733.0    pmi_proxy          1   1803812K    554291K   00:01:15      0:0 

Job 28531733 ("jobname") completed on c14-15 at Fri Nov 8 10:42:31 CET 2019
