<?xml version="1.0" encoding="ISO-8859-1"?>
<modeling>
 <generator>
  <i name="program" type="string">vasp </i>
  <i name="version" type="string">5.4.4.18Apr17-6-g9f103f2a35  </i>
  <i name="subversion" type="string">(build Jun 30 2017 11:15:00) complex            parallel </i>
  <i name="platform" type="string">STALLO_VASP_5.4.4 </i>
  <i name="date" type="string">2019 11 08 </i>
  <i name="time" type="string">12:19:59 </i>
 </generator>
 <incar>
  <i type="string" name="PREC">normal    ! low/normal/accurate</i>
  <i type="string" name="ALGO"> Fast      ! Algorithm for electronic re</i>
  <i type="int" name="ISPIN">     1</i>
  <i type="int" name="NELMIN">     4</i>
  <i name="EDIFF">      0.00001000</i>
  <i type="int" name="NSW">     0</i>
  <i name="ENCUT">    450.00000000</i>
  <i type="logical" name="LREAL"> F  </i>
  <i type="int" name="ISMEAR">    -5</i>
  <i name="SIGMA">      0.20000000</i>
  <i type="logical" name="LWAVE"> F  </i>
  <v type="int" name="KPOINT_BSE">    -1     0     0     0</v>
 </incar>
 <structure name="primitive_cell" >
  <crystal>
   <varray name="basis" >
    <v>       3.19031573       0.00000000       0.00000000 </v>
    <v>      -1.59515786       2.76289447       0.00000000 </v>
    <v>       0.00000000       0.00000000      14.87900430 </v>
   </varray>
   <i name="volume">    131.15106795 </i>
   <varray name="rec_basis" >
    <v>       0.31344860       0.18096963       0.00000000 </v>
    <v>       0.00000000       0.36193927       0.00000000 </v>
    <v>       0.00000000       0.00000000       0.06720880 </v>
   </varray>
  </crystal>
  <varray name="positions" >
   <v>       0.33333300      -0.33333300       0.25000000 </v>
   <v>      -0.33333400       0.33333300       0.35517400 </v>
   <v>      -0.33333300       0.33333300       0.14482600 </v>
   <v>       0.33333300      -0.33333300      -0.14482600 </v>
   <v>       0.33333400      -0.33333300      -0.35517400 </v>
   <v>      -0.33333300       0.33333300      -0.25000000 </v>
  </varray>
 </structure>
 <varray name="primitive_index" >
  <v type="int" >        1 </v>
  <v type="int" >        5 </v>
  <v type="int" >        4 </v>
  <v type="int" >        3 </v>
  <v type="int" >        6 </v>
  <v type="int" >        2 </v>
 </varray>
 <kpoints>
  <generation param="Gamma">
   <v type="int" name="divisions">      18       18        4 </v>
   <v name="usershift">      0.00000000       0.00000000       0.00000000 </v>
   <v name="genvec1">      0.05555556      -0.00000000       0.00000000 </v>
   <v name="genvec2">      0.00000000       0.05555556       0.00000000 </v>
   <v name="genvec3">      0.00000000       0.00000000       0.25000000 </v>
   <v name="shift">      0.00000000       0.00000000       0.00000000 </v>
  </generation>
  <varray name="kpointlist" >
   <v>       0.00000000       0.00000000       0.00000000 </v>
   <v>       0.05555556      -0.00000000       0.00000000 </v>
   <v>       0.11111111      -0.00000000       0.00000000 </v>
   <v>       0.16666667      -0.00000000       0.00000000 </v>
   <v>       0.22222222       0.00000000       0.00000000 </v>
   <v>       0.27777778       0.00000000       0.00000000 </v>
   <v>       0.33333333       0.00000000       0.00000000 </v>
   <v>       0.38888889       0.00000000       0.00000000 </v>
   <v>       0.44444444       0.00000000       0.00000000 </v>
   <v>       0.50000000       0.00000000       0.00000000 </v>
   <v>       0.05555556       0.05555556       0.00000000 </v>
   <v>       0.11111111       0.05555556       0.00000000 </v>
   <v>       0.16666667       0.05555556       0.00000000 </v>
   <v>       0.22222222       0.05555556       0.00000000 </v>
   <v>       0.27777778       0.05555556       0.00000000 </v>
   <v>       0.33333333       0.05555556       0.00000000 </v>
   <v>       0.38888889       0.05555556       0.00000000 </v>
   <v>       0.44444444       0.05555556       0.00000000 </v>
   <v>       0.11111111       0.11111111       0.00000000 </v>
   <v>       0.16666667       0.11111111       0.00000000 </v>
   <v>       0.22222222       0.11111111       0.00000000 </v>
   <v>       0.27777778       0.11111111       0.00000000 </v>
   <v>       0.33333333       0.11111111       0.00000000 </v>
   <v>       0.38888889       0.11111111       0.00000000 </v>
   <v>       0.44444444       0.11111111       0.00000000 </v>
   <v>       0.16666667       0.16666667       0.00000000 </v>
   <v>       0.22222222       0.16666667       0.00000000 </v>
   <v>       0.27777778       0.16666667       0.00000000 </v>
   <v>       0.33333333       0.16666667       0.00000000 </v>
   <v>       0.38888889       0.16666667       0.00000000 </v>
   <v>       0.22222222       0.22222222       0.00000000 </v>
   <v>       0.27777778       0.22222222       0.00000000 </v>
   <v>       0.33333333       0.22222222       0.00000000 </v>
   <v>       0.38888889       0.22222222       0.00000000 </v>
   <v>       0.27777778       0.27777778       0.00000000 </v>
   <v>       0.33333333       0.27777778       0.00000000 </v>
   <v>       0.33333333       0.33333333       0.00000000 </v>
   <v>       0.00000000       0.00000000       0.25000000 </v>
   <v>       0.05555556      -0.00000000       0.25000000 </v>
   <v>       0.11111111      -0.00000000       0.25000000 </v>
   <v>       0.16666667      -0.00000000       0.25000000 </v>
   <v>       0.22222222       0.00000000       0.25000000 </v>
   <v>       0.27777778       0.00000000       0.25000000 </v>
   <v>       0.33333333       0.00000000       0.25000000 </v>
   <v>       0.38888889       0.00000000       0.25000000 </v>
   <v>       0.44444444       0.00000000       0.25000000 </v>
   <v>       0.50000000       0.00000000       0.25000000 </v>
   <v>       0.05555556       0.05555556       0.25000000 </v>
   <v>       0.11111111       0.05555556       0.25000000 </v>
   <v>       0.16666667       0.05555556       0.25000000 </v>
   <v>       0.22222222       0.05555556       0.25000000 </v>
   <v>       0.27777778       0.05555556       0.25000000 </v>
   <v>       0.33333333       0.05555556       0.25000000 </v>
   <v>       0.38888889       0.05555556       0.25000000 </v>
   <v>       0.44444444       0.05555556       0.25000000 </v>
   <v>       0.11111111       0.11111111       0.25000000 </v>
   <v>       0.16666667       0.11111111       0.25000000 </v>
   <v>       0.22222222       0.11111111       0.25000000 </v>
   <v>       0.27777778       0.11111111       0.25000000 </v>
   <v>       0.33333333       0.11111111       0.25000000 </v>
   <v>       0.38888889       0.11111111       0.25000000 </v>
   <v>       0.44444444       0.11111111       0.25000000 </v>
   <v>       0.16666667       0.16666667       0.25000000 </v>
   <v>       0.22222222       0.16666667       0.25000000 </v>
   <v>       0.27777778       0.16666667       0.25000000 </v>
   <v>       0.33333333       0.16666667       0.25000000 </v>
   <v>       0.38888889       0.16666667       0.25000000 </v>
   <v>       0.22222222       0.22222222       0.25000000 </v>
   <v>       0.27777778       0.22222222       0.25000000 </v>
   <v>       0.33333333       0.22222222       0.25000000 </v>
   <v>       0.38888889       0.22222222       0.25000000 </v>
   <v>       0.27777778       0.27777778       0.25000000 </v>
   <v>       0.33333333       0.27777778       0.25000000 </v>
   <v>       0.33333333       0.33333333       0.25000000 </v>
   <v>       0.00000000       0.00000000       0.50000000 </v>
   <v>       0.05555556      -0.00000000       0.50000000 </v>
   <v>       0.11111111      -0.00000000       0.50000000 </v>
   <v>       0.16666667      -0.00000000       0.50000000 </v>
   <v>       0.22222222       0.00000000       0.50000000 </v>
   <v>       0.27777778       0.00000000       0.50000000 </v>
   <v>       0.33333333       0.00000000       0.50000000 </v>
   <v>       0.38888889       0.00000000       0.50000000 </v>
   <v>       0.44444444       0.00000000       0.50000000 </v>
   <v>       0.50000000       0.00000000       0.50000000 </v>
   <v>       0.05555556       0.05555556       0.50000000 </v>
   <v>       0.11111111       0.05555556       0.50000000 </v>
   <v>       0.16666667       0.05555556       0.50000000 </v>
   <v>       0.22222222       0.05555556       0.50000000 </v>
   <v>       0.27777778       0.05555556       0.50000000 </v>
   <v>       0.33333333       0.05555556       0.50000000 </v>
   <v>       0.38888889       0.05555556       0.50000000 </v>
   <v>       0.44444444       0.05555556       0.50000000 </v>
   <v>       0.11111111       0.11111111       0.50000000 </v>
   <v>       0.16666667       0.11111111       0.50000000 </v>
   <v>       0.22222222       0.11111111       0.50000000 </v>
   <v>       0.27777778       0.11111111       0.50000000 </v>
   <v>       0.33333333       0.11111111       0.50000000 </v>
   <v>       0.38888889       0.11111111       0.50000000 </v>
   <v>       0.44444444       0.11111111       0.50000000 </v>
   <v>       0.16666667       0.16666667       0.50000000 </v>
   <v>       0.22222222       0.16666667       0.50000000 </v>
   <v>       0.27777778       0.16666667       0.50000000 </v>
   <v>       0.33333333       0.16666667       0.50000000 </v>
   <v>       0.38888889       0.16666667       0.50000000 </v>
   <v>       0.22222222       0.22222222       0.50000000 </v>
   <v>       0.27777778       0.22222222       0.50000000 </v>
   <v>       0.33333333       0.22222222       0.50000000 </v>
   <v>       0.38888889       0.22222222       0.50000000 </v>
   <v>       0.27777778       0.27777778       0.50000000 </v>
   <v>       0.33333333       0.27777778       0.50000000 </v>
   <v>       0.33333333       0.33333333       0.50000000 </v>
  </varray>
  <varray name="weights" >
   <v>       0.00077160 </v>
   <v>       0.00462963 </v>
   <v>       0.00462963 </v>
   <v>       0.00462963 </v>
   <v>       0.00462963 </v>
   <v>       0.00462963 </v>
   <v>       0.00462963 </v>
   <v>       0.00462963 </v>
   <v>       0.00462963 </v>
   <v>       0.00231481 </v>
   <v>       0.00462963 </v>
   <v>       0.00925926 </v>
   <v>       0.00925926 </v>
   <v>       0.00925926 </v>
   <v>       0.00925926 </v>
   <v>       0.00925926 </v>
   <v>       0.00925926 </v>
   <v>       0.00925926 </v>
   <v>       0.00462963 </v>
   <v>       0.00925926 </v>
   <v>       0.00925926 </v>
   <v>       0.00925926 </v>
   <v>       0.00925926 </v>
   <v>       0.00925926 </v>
   <v>       0.00462963 </v>
   <v>       0.00462963 </v>
   <v>       0.00925926 </v>
   <v>       0.00925926 </v>
   <v>       0.00925926 </v>
   <v>       0.00925926 </v>
   <v>       0.00462963 </v>
   <v>       0.00925926 </v>
   <v>       0.00925926 </v>
   <v>       0.00462963 </v>
   <v>       0.00462963 </v>
   <v>       0.00925926 </v>
   <v>       0.00154321 </v>
   <v>       0.00154321 </v>
   <v>       0.00925926 </v>
   <v>       0.00925926 </v>
   <v>       0.00925926 </v>
   <v>       0.00925926 </v>
   <v>       0.00925926 </v>
   <v>       0.00925926 </v>
   <v>       0.00925926 </v>
   <v>       0.00925926 </v>
   <v>       0.00462963 </v>
   <v>       0.00925926 </v>
   <v>       0.01851852 </v>
   <v>       0.01851852 </v>
   <v>       0.01851852 </v>
   <v>       0.01851852 </v>
   <v>       0.01851852 </v>
   <v>       0.01851852 </v>
   <v>       0.01851852 </v>
   <v>       0.00925926 </v>
   <v>       0.01851852 </v>
   <v>       0.01851852 </v>
   <v>       0.01851852 </v>
   <v>       0.01851852 </v>
   <v>       0.01851852 </v>
   <v>       0.00925926 </v>
   <v>       0.00925926 </v>
   <v>       0.01851852 </v>
   <v>       0.01851852 </v>
   <v>       0.01851852 </v>
   <v>       0.01851852 </v>
   <v>       0.00925926 </v>
   <v>       0.01851852 </v>
   <v>       0.01851852 </v>
   <v>       0.00925926 </v>
   <v>       0.00925926 </v>
   <v>       0.01851852 </v>
   <v>       0.00308642 </v>
   <v>       0.00077160 </v>
   <v>       0.00462963 </v>
   <v>       0.00462963 </v>
   <v>       0.00462963 </v>
   <v>       0.00462963 </v>
   <v>       0.00462963 </v>
   <v>       0.00462963 </v>
   <v>       0.00462963 </v>
   <v>       0.00462963 </v>
   <v>       0.00231481 </v>
   <v>       0.00462963 </v>
   <v>       0.00925926 </v>
   <v>       0.00925926 </v>
   <v>       0.00925926 </v>
   <v>       0.00925926 </v>
   <v>       0.00925926 </v>
   <v>       0.00925926 </v>
   <v>       0.00925926 </v>
   <v>       0.00462963 </v>
   <v>       0.00925926 </v>
   <v>       0.00925926 </v>
   <v>       0.00925926 </v>
   <v>       0.00925926 </v>
   <v>       0.00925926 </v>
   <v>       0.00462963 </v>
   <v>       0.00462963 </v>
   <v>       0.00925926 </v>
   <v>       0.00925926 </v>
   <v>       0.00925926 </v>
   <v>       0.00925926 </v>
   <v>       0.00462963 </v>
   <v>       0.00925926 </v>
   <v>       0.00925926 </v>
   <v>       0.00462963 </v>
   <v>       0.00462963 </v>
   <v>       0.00925926 </v>
   <v>       0.00154321 </v>
  </varray>
  <varray name="tetrahedronlist"  type="int" >
   <v type="int" >        8        2        2       11       39 </v>
   <v type="int" >        8        1        2        2       39 </v>
   <v type="int" >        4        1        2       38       39 </v>
   <v type="int" >        4        2       11       39       48 </v>
   <v type="int" >        8        2       39       39       48 </v>
   <v type="int" >        8        2       38       39       39 </v>
   <v type="int" >        8        3       11       12       48 </v>
   <v type="int" >        8        2        3       11       48 </v>
   <v type="int" >        4        2        3       39       48 </v>
   <v type="int" >        4        3       12       48       49 </v>
   <v type="int" >        8        3       40       48       49 </v>
   <v type="int" >        8        3       39       40       48 </v>
   <v type="int" >        8        4       12       13       49 </v>
   <v type="int" >        8        3        4       12       49 </v>
   <v type="int" >        4        3        4       40       49 </v>
   <v type="int" >        4        4       13       49       50 </v>
   <v type="int" >        8        4       41       49       50 </v>
   <v type="int" >        8        4       40       41       49 </v>
   <v type="int" >        8        5       13       14       50 </v>
   <v type="int" >        8        4        5       13       50 </v>
   <v type="int" >        4        4        5       41       50 </v>
   <v type="int" >        4        5       14       50       51 </v>
   <v type="int" >        8        5       42       50       51 </v>
   <v type="int" >        8        5       41       42       50 </v>
   <v type="int" >        8        6       14       15       51 </v>
   <v type="int" >        8        5        6       14       51 </v>
   <v type="int" >        4        5        6       42       51 </v>
   <v type="int" >        4        6       15       51       52 </v>
   <v type="int" >        8        6       43       51       52 </v>
   <v type="int" >        8        6       42       43       51 </v>
   <v type="int" >        8        7       15       16       52 </v>
   <v type="int" >        8        6        7       15       52 </v>
   <v type="int" >        4        6        7       43       52 </v>
   <v type="int" >        4        7       16       52       53 </v>
   <v type="int" >        8        7       44       52       53 </v>
   <v type="int" >        8        7       43       44       52 </v>
   <v type="int" >        8        8       16       17       53 </v>
   <v type="int" >        8        7        8       16       53 </v>
   <v type="int" >        4        7        8       44       53 </v>
   <v type="int" >        4        8       17       53       54 </v>
   <v type="int" >        8        8       45       53       54 </v>
   <v type="int" >        8        8       44       45       53 </v>
   <v type="int" >        8        9       17       18       54 </v>
   <v type="int" >        8        8        9       17       54 </v>
   <v type="int" >        4        8        9       45       54 </v>
   <v type="int" >        4        9       18       54       55 </v>
   <v type="int" >        8        9       46       54       55 </v>
   <v type="int" >        8        9       45       46       54 </v>
   <v type="int" >        8       10       18       18       55 </v>
   <v type="int" >        8        9       10       18       55 </v>
   <v type="int" >        4        9       10       46       55 </v>
   <v type="int" >        4       10       18       55       55 </v>
   <v type="int" >        4       10       47       55       55 </v>
   <v type="int" >        8       10       46       47       55 </v>
   <v type="int" >        8        9       17       18       55 </v>
   <v type="int" >        4        9       10       47       55 </v>
   <v type="int" >        4        9       17       54       55 </v>
   <v type="int" >        8        9       46       47       55 </v>
   <v type="int" >        8        8       16       17       54 </v>
   <v type="int" >        4        8        9       46       54 </v>
   <v type="int" >        4        8       16       53       54 </v>
   <v type="int" >        8        8       45       46       54 </v>
   <v type="int" >        8        7       15       16       53 </v>
   <v type="int" >        4        7        8       45       53 </v>
   <v type="int" >        4        7       15       52       53 </v>
   <v type="int" >        8        7       44       45       53 </v>
   <v type="int" >        8        6       14       15       52 </v>
   <v type="int" >        4        6        7       44       52 </v>
   <v type="int" >        4        6       14       51       52 </v>
   <v type="int" >        8        6       43       44       52 </v>
   <v type="int" >        8        5       13       14       51 </v>
   <v type="int" >        4        5        6       43       51 </v>
   <v type="int" >        4        5       13       50       51 </v>
   <v type="int" >        8        5       42       43       51 </v>
   <v type="int" >        8        4       12       13       50 </v>
   <v type="int" >        4        4        5       42       50 </v>
   <v type="int" >        4        4       12       49       50 </v>
   <v type="int" >        8        4       41       42       50 </v>
   <v type="int" >        8        3       11       12       49 </v>
   <v type="int" >        4        3        4       41       49 </v>
   <v type="int" >        4        3       11       48       49 </v>
   <v type="int" >        8        3       40       41       49 </v>
   <v type="int" >        4        2        2       11       48 </v>
   <v type="int" >        4        2        3       40       48 </v>
   <v type="int" >        4        2        2       39       48 </v>
   <v type="int" >        8        2       39       40       48 </v>
   <v type="int" >        4        1        2       39       39 </v>
   <v type="int" >        4        1       38       39       39 </v>
   <v type="int" >        8        3       11       12       40 </v>
   <v type="int" >        8        2        3       11       40 </v>
   <v type="int" >        4        2       11       39       40 </v>
   <v type="int" >        4       11       12       40       49 </v>
   <v type="int" >        8       11       40       48       49 </v>
   <v type="int" >        8       11       39       40       48 </v>
   <v type="int" >        8       12       12       19       49 </v>
   <v type="int" >        8       11       12       12       49 </v>
   <v type="int" >        4       11       12       48       49 </v>
   <v type="int" >        4       12       19       49       56 </v>
   <v type="int" >        8       12       49       49       56 </v>
   <v type="int" >        8       12       48       49       49 </v>
   <v type="int" >        8       13       19       20       56 </v>
   <v type="int" >        8       12       13       19       56 </v>
   <v type="int" >        4       12       13       49       56 </v>
   <v type="int" >        4       13       20       56       57 </v>
   <v type="int" >        8       13       50       56       57 </v>
   <v type="int" >        8       13       49       50       56 </v>
   <v type="int" >        8       14       20       21       57 </v>
   <v type="int" >        8       13       14       20       57 </v>
   <v type="int" >        4       13       14       50       57 </v>
   <v type="int" >        4       14       21       57       58 </v>
   <v type="int" >        8       14       51       57       58 </v>
   <v type="int" >        8       14       50       51       57 </v>
   <v type="int" >        8       15       21       22       58 </v>
   <v type="int" >        8       14       15       21       58 </v>
   <v type="int" >        4       14       15       51       58 </v>
   <v type="int" >        4       15       22       58       59 </v>
   <v type="int" >        8       15       52       58       59 </v>
   <v type="int" >        8       15       51       52       58 </v>
   <v type="int" >        8       16       22       23       59 </v>
   <v type="int" >        8       15       16       22       59 </v>
   <v type="int" >        4       15       16       52       59 </v>
   <v type="int" >        4       16       23       59       60 </v>
   <v type="int" >        8       16       53       59       60 </v>
   <v type="int" >        8       16       52       53       59 </v>
   <v type="int" >        8       17       23       24       60 </v>
   <v type="int" >        8       16       17       23       60 </v>
   <v type="int" >        4       16       17       53       60 </v>
   <v type="int" >        4       17       24       60       61 </v>
   <v type="int" >        8       17       54       60       61 </v>
   <v type="int" >        8       17       53       54       60 </v>
   <v type="int" >        8       18       24       25       61 </v>
   <v type="int" >        8       17       18       24       61 </v>
   <v type="int" >        4       17       18       54       61 </v>
   <v type="int" >        4       18       25       61       62 </v>
   <v type="int" >        8       18       55       61       62 </v>
   <v type="int" >        8       18       54       55       61 </v>
   <v type="int" >        8       18       24       25       62 </v>
   <v type="int" >        4       18       18       25       62 </v>
   <v type="int" >        4       18       18       55       62 </v>
   <v type="int" >        4       18       24       61       62 </v>
   <v type="int" >        8       18       55       55       62 </v>
   <v type="int" >        8       17       23       24       61 </v>
   <v type="int" >        4       17       18       55       61 </v>
   <v type="int" >        4       17       23       60       61 </v>
   <v type="int" >        8       17       54       55       61 </v>
   <v type="int" >        8       16       22       23       60 </v>
   <v type="int" >        4       16       17       54       60 </v>
   <v type="int" >        4       16       22       59       60 </v>
   <v type="int" >        8       16       53       54       60 </v>
   <v type="int" >        8       15       21       22       59 </v>
   <v type="int" >        4       15       16       53       59 </v>
   <v type="int" >        4       15       21       58       59 </v>
   <v type="int" >        8       15       52       53       59 </v>
   <v type="int" >        8       14       20       21       58 </v>
   <v type="int" >        4       14       15       52       58 </v>
   <v type="int" >        4       14       20       57       58 </v>
   <v type="int" >        8       14       51       52       58 </v>
   <v type="int" >        8       13       19       20       57 </v>
   <v type="int" >        4       13       14       51       57 </v>
   <v type="int" >        4       13       19       56       57 </v>
   <v type="int" >        8       13       50       51       57 </v>
   <v type="int" >        4       12       12       19       56 </v>
   <v type="int" >        4       12       13       50       56 </v>
   <v type="int" >        4       12       12       49       56 </v>
   <v type="int" >        8       12       49       50       56 </v>
   <v type="int" >        4       11       12       49       49 </v>
   <v type="int" >        4        3       11       40       49 </v>
   <v type="int" >        4       11       48       49       49 </v>
   <v type="int" >        4        2       11       40       48 </v>
   <v type="int" >        8        4       12       13       41 </v>
   <v type="int" >        8        3        4       12       41 </v>
   <v type="int" >        4        3       12       40       41 </v>
   <v type="int" >        4       12       13       41       50 </v>
   <v type="int" >        8       12       41       49       50 </v>
   <v type="int" >        8       12       40       41       49 </v>
   <v type="int" >        8       13       19       20       50 </v>
   <v type="int" >        8       12       13       19       50 </v>
   <v type="int" >        4       12       19       49       50 </v>
   <v type="int" >        4       19       20       50       57 </v>
   <v type="int" >        8       19       50       56       57 </v>
   <v type="int" >        8       19       49       50       56 </v>
   <v type="int" >        8       20       20       26       57 </v>
   <v type="int" >        8       19       20       20       57 </v>
   <v type="int" >        4       19       20       56       57 </v>
   <v type="int" >        4       20       26       57       63 </v>
   <v type="int" >        8       20       57       57       63 </v>
   <v type="int" >        8       20       56       57       57 </v>
   <v type="int" >        8       21       26       27       63 </v>
   <v type="int" >        8       20       21       26       63 </v>
   <v type="int" >        4       20       21       57       63 </v>
   <v type="int" >        4       21       27       63       64 </v>
   <v type="int" >        8       21       58       63       64 </v>
   <v type="int" >        8       21       57       58       63 </v>
   <v type="int" >        8       22       27       28       64 </v>
   <v type="int" >        8       21       22       27       64 </v>
   <v type="int" >        4       21       22       58       64 </v>
   <v type="int" >        4       22       28       64       65 </v>
   <v type="int" >        8       22       59       64       65 </v>
   <v type="int" >        8       22       58       59       64 </v>
   <v type="int" >        8       23       28       29       65 </v>
   <v type="int" >        8       22       23       28       65 </v>
   <v type="int" >        4       22       23       59       65 </v>
   <v type="int" >        4       23       29       65       66 </v>
   <v type="int" >        8       23       60       65       66 </v>
   <v type="int" >        8       23       59       60       65 </v>
   <v type="int" >        8       24       29       30       66 </v>
   <v type="int" >        8       23       24       29       66 </v>
   <v type="int" >        4       23       24       60       66 </v>
   <v type="int" >        4       24       30       66       67 </v>
   <v type="int" >        8       24       61       66       67 </v>
   <v type="int" >        8       24       60       61       66 </v>
   <v type="int" >        8       25       30       30       67 </v>
   <v type="int" >        8       24       25       30       67 </v>
   <v type="int" >        4       24       25       61       67 </v>
   <v type="int" >        4       25       30       67       67 </v>
   <v type="int" >        4       25       62       67       67 </v>
   <v type="int" >        8       25       61       62       67 </v>
   <v type="int" >        8       24       29       30       67 </v>
   <v type="int" >        4       24       25       62       67 </v>
   <v type="int" >        4       24       29       66       67 </v>
   <v type="int" >        8       24       61       62       67 </v>
   <v type="int" >        8       23       28       29       66 </v>
   <v type="int" >        4       23       24       61       66 </v>
   <v type="int" >        4       23       28       65       66 </v>
   <v type="int" >        8       23       60       61       66 </v>
   <v type="int" >        8       22       27       28       65 </v>
   <v type="int" >        4       22       23       60       65 </v>
   <v type="int" >        4       22       27       64       65 </v>
   <v type="int" >        8       22       59       60       65 </v>
   <v type="int" >        8       21       26       27       64 </v>
   <v type="int" >        4       21       22       59       64 </v>
   <v type="int" >        4       21       26       63       64 </v>
   <v type="int" >        8       21       58       59       64 </v>
   <v type="int" >        4       20       20       26       63 </v>
   <v type="int" >        4       20       21       58       63 </v>
   <v type="int" >        4       20       20       57       63 </v>
   <v type="int" >        8       20       57       58       63 </v>
   <v type="int" >        4       19       20       57       57 </v>
   <v type="int" >        4       13       19       50       57 </v>
   <v type="int" >        4       19       56       57       57 </v>
   <v type="int" >        4       12       19       50       56 </v>
   <v type="int" >        4        4       12       41       50 </v>
   <v type="int" >        4        3       12       41       49 </v>
   <v type="int" >        8        5       13       14       42 </v>
   <v type="int" >        8        4        5       13       42 </v>
   <v type="int" >        4        4       13       41       42 </v>
   <v type="int" >        4       13       14       42       51 </v>
   <v type="int" >        8       13       42       50       51 </v>
   <v type="int" >        8       13       41       42       50 </v>
   <v type="int" >        8       14       20       21       51 </v>
   <v type="int" >        8       13       14       20       51 </v>
   <v type="int" >        4       13       20       50       51 </v>
   <v type="int" >        4       20       21       51       58 </v>
   <v type="int" >        8       20       51       57       58 </v>
   <v type="int" >        8       20       50       51       57 </v>
   <v type="int" >        8       21       26       27       58 </v>
   <v type="int" >        8       20       21       26       58 </v>
   <v type="int" >        4       20       26       57       58 </v>
   <v type="int" >        4       26       27       58       64 </v>
   <v type="int" >        8       26       58       63       64 </v>
   <v type="int" >        8       26       57       58       63 </v>
   <v type="int" >        8       27       27       31       64 </v>
   <v type="int" >        8       26       27       27       64 </v>
   <v type="int" >        4       26       27       63       64 </v>
   <v type="int" >        4       27       31       64       68 </v>
   <v type="int" >        8       27       64       64       68 </v>
   <v type="int" >        8       27       63       64       64 </v>
   <v type="int" >        8       28       31       32       68 </v>
   <v type="int" >        8       27       28       31       68 </v>
   <v type="int" >        4       27       28       64       68 </v>
   <v type="int" >        4       28       32       68       69 </v>
   <v type="int" >        8       28       65       68       69 </v>
   <v type="int" >        8       28       64       65       68 </v>
   <v type="int" >        8       29       32       33       69 </v>
   <v type="int" >        8       28       29       32       69 </v>
   <v type="int" >        4       28       29       65       69 </v>
   <v type="int" >        4       29       33       69       70 </v>
   <v type="int" >        8       29       66       69       70 </v>
   <v type="int" >        8       29       65       66       69 </v>
   <v type="int" >        8       30       33       34       70 </v>
   <v type="int" >        8       29       30       33       70 </v>
   <v type="int" >        4       29       30       66       70 </v>
   <v type="int" >        4       30       34       70       71 </v>
   <v type="int" >        8       30       67       70       71 </v>
   <v type="int" >        8       30       66       67       70 </v>
   <v type="int" >        8       30       33       34       71 </v>
   <v type="int" >        4       30       30       34       71 </v>
   <v type="int" >        4       30       30       67       71 </v>
   <v type="int" >        4       30       33       70       71 </v>
   <v type="int" >        8       30       67       67       71 </v>
   <v type="int" >        8       29       32       33       70 </v>
   <v type="int" >        4       29       30       67       70 </v>
   <v type="int" >        4       29       32       69       70 </v>
   <v type="int" >        8       29       66       67       70 </v>
   <v type="int" >        8       28       31       32       69 </v>
   <v type="int" >        4       28       29       66       69 </v>
   <v type="int" >        4       28       31       68       69 </v>
   <v type="int" >        8       28       65       66       69 </v>
   <v type="int" >        4       27       27       31       68 </v>
   <v type="int" >        4       27       28       65       68 </v>
   <v type="int" >        4       27       27       64       68 </v>
   <v type="int" >        8       27       64       65       68 </v>
   <v type="int" >        4       26       27       64       64 </v>
   <v type="int" >        4       21       26       58       64 </v>
   <v type="int" >        4       26       63       64       64 </v>
   <v type="int" >        4       20       26       58       63 </v>
   <v type="int" >        4       14       20       51       58 </v>
   <v type="int" >        4       13       20       51       57 </v>
   <v type="int" >        4        5       13       42       51 </v>
   <v type="int" >        4        4       13       42       50 </v>
   <v type="int" >        8        6       14       15       43 </v>
   <v type="int" >        8        5        6       14       43 </v>
   <v type="int" >        4        5       14       42       43 </v>
   <v type="int" >        4       14       15       43       52 </v>
   <v type="int" >        8       14       43       51       52 </v>
   <v type="int" >        8       14       42       43       51 </v>
   <v type="int" >        8       15       21       22       52 </v>
   <v type="int" >        8       14       15       21       52 </v>
   <v type="int" >        4       14       21       51       52 </v>
   <v type="int" >        4       21       22       52       59 </v>
   <v type="int" >        8       21       52       58       59 </v>
   <v type="int" >        8       21       51       52       58 </v>
   <v type="int" >        8       22       27       28       59 </v>
   <v type="int" >        8       21       22       27       59 </v>
   <v type="int" >        4       21       27       58       59 </v>
   <v type="int" >        4       27       28       59       65 </v>
   <v type="int" >        8       27       59       64       65 </v>
   <v type="int" >        8       27       58       59       64 </v>
   <v type="int" >        8       28       31       32       65 </v>
   <v type="int" >        8       27       28       31       65 </v>
   <v type="int" >        4       27       31       64       65 </v>
   <v type="int" >        4       31       32       65       69 </v>
   <v type="int" >        8       31       65       68       69 </v>
   <v type="int" >        8       31       64       65       68 </v>
   <v type="int" >        8       32       32       35       69 </v>
   <v type="int" >        8       31       32       32       69 </v>
   <v type="int" >        4       31       32       68       69 </v>
   <v type="int" >        4       32       35       69       72 </v>
   <v type="int" >        8       32       69       69       72 </v>
   <v type="int" >        8       32       68       69       69 </v>
   <v type="int" >        8       33       35       36       72 </v>
   <v type="int" >        8       32       33       35       72 </v>
   <v type="int" >        4       32       33       69       72 </v>
   <v type="int" >        4       33       36       72       73 </v>
   <v type="int" >        8       33       70       72       73 </v>
   <v type="int" >        8       33       69       70       72 </v>
   <v type="int" >        8       34       36       36       73 </v>
   <v type="int" >        8       33       34       36       73 </v>
   <v type="int" >        4       33       34       70       73 </v>
   <v type="int" >        4       34       36       73       73 </v>
   <v type="int" >        4       34       71       73       73 </v>
   <v type="int" >        8       34       70       71       73 </v>
   <v type="int" >        8       33       35       36       73 </v>
   <v type="int" >        4       33       34       71       73 </v>
   <v type="int" >        4       33       35       72       73 </v>
   <v type="int" >        8       33       70       71       73 </v>
   <v type="int" >        4       32       32       35       72 </v>
   <v type="int" >        4       32       33       70       72 </v>
   <v type="int" >        4       32       32       69       72 </v>
   <v type="int" >        8       32       69       70       72 </v>
   <v type="int" >        4       31       32       69       69 </v>
   <v type="int" >        4       28       31       65       69 </v>
   <v type="int" >        4       31       68       69       69 </v>
   <v type="int" >        4       27       31       65       68 </v>
   <v type="int" >        4       22       27       59       65 </v>
   <v type="int" >        4       21       27       59       64 </v>
   <v type="int" >        4       15       21       52       59 </v>
   <v type="int" >        4       14       21       52       58 </v>
   <v type="int" >        4        6       14       43       52 </v>
   <v type="int" >        4        5       14       43       51 </v>
   <v type="int" >        8        7       15       16       44 </v>
   <v type="int" >        8        6        7       15       44 </v>
   <v type="int" >        4        6       15       43       44 </v>
   <v type="int" >        4       15       16       44       53 </v>
   <v type="int" >        8       15       44       52       53 </v>
   <v type="int" >        8       15       43       44       52 </v>
   <v type="int" >        8       16       22       23       53 </v>
   <v type="int" >        8       15       16       22       53 </v>
   <v type="int" >        4       15       22       52       53 </v>
   <v type="int" >        4       22       23       53       60 </v>
   <v type="int" >        8       22       53       59       60 </v>
   <v type="int" >        8       22       52       53       59 </v>
   <v type="int" >        8       23       28       29       60 </v>
   <v type="int" >        8       22       23       28       60 </v>
   <v type="int" >        4       22       28       59       60 </v>
   <v type="int" >        4       28       29       60       66 </v>
   <v type="int" >        8       28       60       65       66 </v>
   <v type="int" >        8       28       59       60       65 </v>
   <v type="int" >        8       29       32       33       66 </v>
   <v type="int" >        8       28       29       32       66 </v>
   <v type="int" >        4       28       32       65       66 </v>
   <v type="int" >        4       32       33       66       70 </v>
   <v type="int" >        8       32       66       69       70 </v>
   <v type="int" >        8       32       65       66       69 </v>
   <v type="int" >        8       33       35       36       70 </v>
   <v type="int" >        8       32       33       35       70 </v>
   <v type="int" >        4       32       35       69       70 </v>
   <v type="int" >        4       35       36       70       73 </v>
   <v type="int" >        8       35       70       72       73 </v>
   <v type="int" >        8       35       69       70       72 </v>
   <v type="int" >       16       36       36       37       73 </v>
   <v type="int" >        8       35       36       36       73 </v>
   <v type="int" >        4       35       36       72       73 </v>
   <v type="int" >        8       36       37       73       74 </v>
   <v type="int" >       16       36       73       73       74 </v>
   <v type="int" >        8       36       72       73       73 </v>
   <v type="int" >        8       36       36       37       74 </v>
   <v type="int" >        8       36       36       73       74 </v>
   <v type="int" >        4       35       36       73       73 </v>
   <v type="int" >        4       33       35       70       73 </v>
   <v type="int" >        4       35       72       73       73 </v>
   <v type="int" >        4       32       35       70       72 </v>
   <v type="int" >        4       29       32       66       70 </v>
   <v type="int" >        4       28       32       66       69 </v>
   <v type="int" >        4       23       28       60       66 </v>
   <v type="int" >        4       22       28       60       65 </v>
   <v type="int" >        4       16       22       53       60 </v>
   <v type="int" >        4       15       22       53       59 </v>
   <v type="int" >        4        7       15       44       53 </v>
   <v type="int" >        4        6       15       44       52 </v>
   <v type="int" >        8        8       16       17       45 </v>
   <v type="int" >        8        7        8       16       45 </v>
   <v type="int" >        4        7       16       44       45 </v>
   <v type="int" >        4       16       17       45       54 </v>
   <v type="int" >        8       16       45       53       54 </v>
   <v type="int" >        8       16       44       45       53 </v>
   <v type="int" >        8       17       23       24       54 </v>
   <v type="int" >        8       16       17       23       54 </v>
   <v type="int" >        4       16       23       53       54 </v>
   <v type="int" >        4       23       24       54       61 </v>
   <v type="int" >        8       23       54       60       61 </v>
   <v type="int" >        8       23       53       54       60 </v>
   <v type="int" >        8       24       29       30       61 </v>
   <v type="int" >        8       23       24       29       61 </v>
   <v type="int" >        4       23       29       60       61 </v>
   <v type="int" >        4       29       30       61       67 </v>
   <v type="int" >        8       29       61       66       67 </v>
   <v type="int" >        8       29       60       61       66 </v>
   <v type="int" >        8       30       33       34       67 </v>
   <v type="int" >        8       29       30       33       67 </v>
   <v type="int" >        4       29       33       66       67 </v>
   <v type="int" >        4       33       34       67       71 </v>
   <v type="int" >        8       33       67       70       71 </v>
   <v type="int" >        8       33       66       67       70 </v>
   <v type="int" >        4       34       36       36       71 </v>
   <v type="int" >        8       33       34       36       71 </v>
   <v type="int" >        4       33       36       70       71 </v>
   <v type="int" >        4       36       36       71       73 </v>
   <v type="int" >        8       36       71       73       73 </v>
   <v type="int" >        8       36       70       71       73 </v>
   <v type="int" >        8       36       37       73       73 </v>
   <v type="int" >        8       37       73       73       74 </v>
   <v type="int" >        4       34       36       71       73 </v>
   <v type="int" >        4       33       36       71       73 </v>
   <v type="int" >        4       30       33       67       71 </v>
   <v type="int" >        4       29       33       67       70 </v>
   <v type="int" >        4       24       29       61       67 </v>
   <v type="int" >        4       23       29       61       66 </v>
   <v type="int" >        4       17       23       54       61 </v>
   <v type="int" >        4       16       23       54       60 </v>
   <v type="int" >        4        8       16       45       54 </v>
   <v type="int" >        4        7       16       45       53 </v>
   <v type="int" >        8        9       17       18       46 </v>
   <v type="int" >        8        8        9       17       46 </v>
   <v type="int" >        4        8       17       45       46 </v>
   <v type="int" >        4       17       18       46       55 </v>
   <v type="int" >        8       17       46       54       55 </v>
   <v type="int" >        8       17       45       46       54 </v>
   <v type="int" >        8       18       24       25       55 </v>
   <v type="int" >        8       17       18       24       55 </v>
   <v type="int" >        4       17       24       54       55 </v>
   <v type="int" >        4       24       25       55       62 </v>
   <v type="int" >        8       24       55       61       62 </v>
   <v type="int" >        8       24       54       55       61 </v>
   <v type="int" >        4       25       30       30       62 </v>
   <v type="int" >        8       24       25       30       62 </v>
   <v type="int" >        4       24       30       61       62 </v>
   <v type="int" >        4       30       30       62       67 </v>
   <v type="int" >        8       30       62       67       67 </v>
   <v type="int" >        8       30       61       62       67 </v>
   <v type="int" >        8       30       30       34       67 </v>
   <v type="int" >        4       30       34       67       67 </v>
   <v type="int" >        4       33       34       67       70 </v>
   <v type="int" >        8       34       67       70       71 </v>
   <v type="int" >        4       34       67       67       71 </v>
   <v type="int" >        8       33       34       36       70 </v>
   <v type="int" >        4       34       36       70       71 </v>
   <v type="int" >        4       35       36       70       72 </v>
   <v type="int" >        8       36       70       72       73 </v>
   <v type="int" >        4       35       36       36       72 </v>
   <v type="int" >        4       36       36       72       73 </v>
   <v type="int" >        4       33       36       70       72 </v>
   <v type="int" >        4       34       36       70       73 </v>
   <v type="int" >        4       30       34       67       70 </v>
   <v type="int" >        4       30       34       67       71 </v>
   <v type="int" >        4       25       30       62       67 </v>
   <v type="int" >        4       24       30       62       67 </v>
   <v type="int" >        4       18       24       55       62 </v>
   <v type="int" >        4       17       24       55       61 </v>
   <v type="int" >        4        9       17       46       55 </v>
   <v type="int" >        4        8       17       46       54 </v>
   <v type="int" >        4       10       18       18       47 </v>
   <v type="int" >        8        9       10       18       47 </v>
   <v type="int" >        4        9       18       46       47 </v>
   <v type="int" >        4       18       18       47       55 </v>
   <v type="int" >        8       18       47       55       55 </v>
   <v type="int" >        8       18       46       47       55 </v>
   <v type="int" >        8       18       18       25       55 </v>
   <v type="int" >        4       18       25       55       55 </v>
   <v type="int" >        4       24       25       55       61 </v>
   <v type="int" >        8       25       55       61       62 </v>
   <v type="int" >        4       25       55       55       62 </v>
   <v type="int" >        8       24       25       30       61 </v>
   <v type="int" >        4       25       30       61       62 </v>
   <v type="int" >        4       29       30       61       66 </v>
   <v type="int" >        8       30       61       66       67 </v>
   <v type="int" >        8       29       30       33       66 </v>
   <v type="int" >        4       30       33       66       67 </v>
   <v type="int" >        4       32       33       66       69 </v>
   <v type="int" >        8       33       66       69       70 </v>
   <v type="int" >        8       32       33       35       69 </v>
   <v type="int" >        4       33       35       69       70 </v>
   <v type="int" >        4       32       35       69       69 </v>
   <v type="int" >        4       35       69       69       72 </v>
   <v type="int" >        4       33       35       69       72 </v>
   <v type="int" >        4       29       33       66       69 </v>
   <v type="int" >        4       30       33       66       70 </v>
   <v type="int" >        4       24       30       61       66 </v>
   <v type="int" >        4       25       30       61       67 </v>
   <v type="int" >        4       18       25       55       61 </v>
   <v type="int" >        4       18       25       55       62 </v>
   <v type="int" >        4       10       18       47       55 </v>
   <v type="int" >        4        9       18       47       55 </v>
   <v type="int" >        8        9       10       18       46 </v>
   <v type="int" >        4       10       18       46       47 </v>
   <v type="int" >        4       17       18       46       54 </v>
   <v type="int" >        8       18       46       54       55 </v>
   <v type="int" >        8       17       18       24       54 </v>
   <v type="int" >        4       18       24       54       55 </v>
   <v type="int" >        4       23       24       54       60 </v>
   <v type="int" >        8       24       54       60       61 </v>
   <v type="int" >        8       23       24       29       60 </v>
   <v type="int" >        4       24       29       60       61 </v>
   <v type="int" >        4       28       29       60       65 </v>
   <v type="int" >        8       29       60       65       66 </v>
   <v type="int" >        8       28       29       32       65 </v>
   <v type="int" >        4       29       32       65       66 </v>
   <v type="int" >        4       31       32       65       68 </v>
   <v type="int" >        8       32       65       68       69 </v>
   <v type="int" >        4       31       32       32       68 </v>
   <v type="int" >        4       32       32       68       69 </v>
   <v type="int" >        4       28       32       65       68 </v>
   <v type="int" >        4       29       32       65       69 </v>
   <v type="int" >        4       23       29       60       65 </v>
   <v type="int" >        4       24       29       60       66 </v>
   <v type="int" >        4       17       24       54       60 </v>
   <v type="int" >        4       18       24       54       61 </v>
   <v type="int" >        4        9       18       46       54 </v>
   <v type="int" >        4       10       18       46       55 </v>
   <v type="int" >        8        8        9       17       45 </v>
   <v type="int" >        4        9       17       45       46 </v>
   <v type="int" >        4       16       17       45       53 </v>
   <v type="int" >        8       17       45       53       54 </v>
   <v type="int" >        8       16       17       23       53 </v>
   <v type="int" >        4       17       23       53       54 </v>
   <v type="int" >        4       22       23       53       59 </v>
   <v type="int" >        8       23       53       59       60 </v>
   <v type="int" >        8       22       23       28       59 </v>
   <v type="int" >        4       23       28       59       60 </v>
   <v type="int" >        4       27       28       59       64 </v>
   <v type="int" >        8       28       59       64       65 </v>
   <v type="int" >        8       27       28       31       64 </v>
   <v type="int" >        4       28       31       64       65 </v>
   <v type="int" >        4       27       31       64       64 </v>
   <v type="int" >        4       31       64       64       68 </v>
   <v type="int" >        4       28       31       64       68 </v>
   <v type="int" >        4       22       28       59       64 </v>
   <v type="int" >        4       23       28       59       65 </v>
   <v type="int" >        4       16       23       53       59 </v>
   <v type="int" >        4       17       23       53       60 </v>
   <v type="int" >        4        8       17       45       53 </v>
   <v type="int" >        4        9       17       45       54 </v>
   <v type="int" >        8        7        8       16       44 </v>
   <v type="int" >        4        8       16       44       45 </v>
   <v type="int" >        4       15       16       44       52 </v>
   <v type="int" >        8       16       44       52       53 </v>
   <v type="int" >        8       15       16       22       52 </v>
   <v type="int" >        4       16       22       52       53 </v>
   <v type="int" >        4       21       22       52       58 </v>
   <v type="int" >        8       22       52       58       59 </v>
   <v type="int" >        8       21       22       27       58 </v>
   <v type="int" >        4       22       27       58       59 </v>
   <v type="int" >        4       26       27       58       63 </v>
   <v type="int" >        8       27       58       63       64 </v>
   <v type="int" >        4       26       27       27       63 </v>
   <v type="int" >        4       27       27       63       64 </v>
   <v type="int" >        4       21       27       58       63 </v>
   <v type="int" >        4       22       27       58       64 </v>
   <v type="int" >        4       15       22       52       58 </v>
   <v type="int" >        4       16       22       52       59 </v>
   <v type="int" >        4        7       16       44       52 </v>
   <v type="int" >        4        8       16       44       53 </v>
   <v type="int" >        8        6        7       15       43 </v>
   <v type="int" >        4        7       15       43       44 </v>
   <v type="int" >        4       14       15       43       51 </v>
   <v type="int" >        8       15       43       51       52 </v>
   <v type="int" >        8       14       15       21       51 </v>
   <v type="int" >        4       15       21       51       52 </v>
   <v type="int" >        4       20       21       51       57 </v>
   <v type="int" >        8       21       51       57       58 </v>
   <v type="int" >        8       20       21       26       57 </v>
   <v type="int" >        4       21       26       57       58 </v>
   <v type="int" >        4       20       26       57       57 </v>
   <v type="int" >        4       26       57       57       63 </v>
   <v type="int" >        4       21       26       57       63 </v>
   <v type="int" >        4       14       21       51       57 </v>
   <v type="int" >        4       15       21       51       58 </v>
   <v type="int" >        4        6       15       43       51 </v>
   <v type="int" >        4        7       15       43       52 </v>
   <v type="int" >        8        5        6       14       42 </v>
   <v type="int" >        4        6       14       42       43 </v>
   <v type="int" >        4       13       14       42       50 </v>
   <v type="int" >        8       14       42       50       51 </v>
   <v type="int" >        8       13       14       20       50 </v>
   <v type="int" >        4       14       20       50       51 </v>
   <v type="int" >        4       19       20       50       56 </v>
   <v type="int" >        8       20       50       56       57 </v>
   <v type="int" >        4       19       20       20       56 </v>
   <v type="int" >        4       20       20       56       57 </v>
   <v type="int" >        4       13       20       50       56 </v>
   <v type="int" >        4       14       20       50       57 </v>
   <v type="int" >        4        5       14       42       50 </v>
   <v type="int" >        4        6       14       42       51 </v>
   <v type="int" >        8        4        5       13       41 </v>
   <v type="int" >        4        5       13       41       42 </v>
   <v type="int" >        4       12       13       41       49 </v>
   <v type="int" >        8       13       41       49       50 </v>
   <v type="int" >        8       12       13       19       49 </v>
   <v type="int" >        4       13       19       49       50 </v>
   <v type="int" >        4       12       19       49       49 </v>
   <v type="int" >        4       19       49       49       56 </v>
   <v type="int" >        4       13       19       49       56 </v>
   <v type="int" >        4        4       13       41       49 </v>
   <v type="int" >        4        5       13       41       50 </v>
   <v type="int" >        8        3        4       12       40 </v>
   <v type="int" >        4        4       12       40       41 </v>
   <v type="int" >        4       11       12       40       48 </v>
   <v type="int" >        8       12       40       48       49 </v>
   <v type="int" >        4       11       12       12       48 </v>
   <v type="int" >        4       12       12       48       49 </v>
   <v type="int" >        4        3       12       40       48 </v>
   <v type="int" >        4        4       12       40       49 </v>
   <v type="int" >        8        2        3       11       39 </v>
   <v type="int" >        4        3       11       39       40 </v>
   <v type="int" >        4        2       11       39       39 </v>
   <v type="int" >        4       11       39       39       48 </v>
   <v type="int" >        4        3       11       39       48 </v>
   <v type="int" >        4        1        2        2       38 </v>
   <v type="int" >        4        2        2       38       39 </v>
   <v type="int" >        8       39       39       48       76 </v>
   <v type="int" >        8       38       39       39       76 </v>
   <v type="int" >        4       38       39       75       76 </v>
   <v type="int" >        4       39       48       76       85 </v>
   <v type="int" >        8       39       76       76       85 </v>
   <v type="int" >        8       39       75       76       76 </v>
   <v type="int" >        8       40       48       49       85 </v>
   <v type="int" >        8       39       40       48       85 </v>
   <v type="int" >        4       39       40       76       85 </v>
   <v type="int" >        4       40       49       85       86 </v>
   <v type="int" >        8       40       77       85       86 </v>
   <v type="int" >        8       40       76       77       85 </v>
   <v type="int" >        8       41       49       50       86 </v>
   <v type="int" >        8       40       41       49       86 </v>
   <v type="int" >        4       40       41       77       86 </v>
   <v type="int" >        4       41       50       86       87 </v>
   <v type="int" >        8       41       78       86       87 </v>
   <v type="int" >        8       41       77       78       86 </v>
   <v type="int" >        8       42       50       51       87 </v>
   <v type="int" >        8       41       42       50       87 </v>
   <v type="int" >        4       41       42       78       87 </v>
   <v type="int" >        4       42       51       87       88 </v>
   <v type="int" >        8       42       79       87       88 </v>
   <v type="int" >        8       42       78       79       87 </v>
   <v type="int" >        8       43       51       52       88 </v>
   <v type="int" >        8       42       43       51       88 </v>
   <v type="int" >        4       42       43       79       88 </v>
   <v type="int" >        4       43       52       88       89 </v>
   <v type="int" >        8       43       80       88       89 </v>
   <v type="int" >        8       43       79       80       88 </v>
   <v type="int" >        8       44       52       53       89 </v>
   <v type="int" >        8       43       44       52       89 </v>
   <v type="int" >        4       43       44       80       89 </v>
   <v type="int" >        4       44       53       89       90 </v>
   <v type="int" >        8       44       81       89       90 </v>
   <v type="int" >        8       44       80       81       89 </v>
   <v type="int" >        8       45       53       54       90 </v>
   <v type="int" >        8       44       45       53       90 </v>
   <v type="int" >        4       44       45       81       90 </v>
   <v type="int" >        4       45       54       90       91 </v>
   <v type="int" >        8       45       82       90       91 </v>
   <v type="int" >        8       45       81       82       90 </v>
   <v type="int" >        8       46       54       55       91 </v>
   <v type="int" >        8       45       46       54       91 </v>
   <v type="int" >        4       45       46       82       91 </v>
   <v type="int" >        4       46       55       91       92 </v>
   <v type="int" >        8       46       83       91       92 </v>
   <v type="int" >        8       46       82       83       91 </v>
   <v type="int" >        8       47       55       55       92 </v>
   <v type="int" >        8       46       47       55       92 </v>
   <v type="int" >        4       46       47       83       92 </v>
   <v type="int" >        4       47       55       92       92 </v>
   <v type="int" >        4       47       84       92       92 </v>
   <v type="int" >        8       47       83       84       92 </v>
   <v type="int" >        8       46       54       55       92 </v>
   <v type="int" >        4       46       47       84       92 </v>
   <v type="int" >        4       46       54       91       92 </v>
   <v type="int" >        8       46       83       84       92 </v>
   <v type="int" >        8       45       53       54       91 </v>
   <v type="int" >        4       45       46       83       91 </v>
   <v type="int" >        4       45       53       90       91 </v>
   <v type="int" >        8       45       82       83       91 </v>
   <v type="int" >        8       44       52       53       90 </v>
   <v type="int" >        4       44       45       82       90 </v>
   <v type="int" >        4       44       52       89       90 </v>
   <v type="int" >        8       44       81       82       90 </v>
   <v type="int" >        8       43       51       52       89 </v>
   <v type="int" >        4       43       44       81       89 </v>
   <v type="int" >        4       43       51       88       89 </v>
   <v type="int" >        8       43       80       81       89 </v>
   <v type="int" >        8       42       50       51       88 </v>
   <v type="int" >        4       42       43       80       88 </v>
   <v type="int" >        4       42       50       87       88 </v>
   <v type="int" >        8       42       79       80       88 </v>
   <v type="int" >        8       41       49       50       87 </v>
   <v type="int" >        4       41       42       79       87 </v>
   <v type="int" >        4       41       49       86       87 </v>
   <v type="int" >        8       41       78       79       87 </v>
   <v type="int" >        8       40       48       49       86 </v>
   <v type="int" >        4       40       41       78       86 </v>
   <v type="int" >        4       40       48       85       86 </v>
   <v type="int" >        8       40       77       78       86 </v>
   <v type="int" >        4       39       39       48       85 </v>
   <v type="int" >        4       39       40       77       85 </v>
   <v type="int" >        4       39       39       76       85 </v>
   <v type="int" >        8       39       76       77       85 </v>
   <v type="int" >        4       38       39       76       76 </v>
   <v type="int" >        4       38       75       76       76 </v>
   <v type="int" >        8       40       48       49       77 </v>
   <v type="int" >        8       39       40       48       77 </v>
   <v type="int" >        4       39       48       76       77 </v>
   <v type="int" >        4       48       49       77       86 </v>
   <v type="int" >        8       48       77       85       86 </v>
   <v type="int" >        8       48       76       77       85 </v>
   <v type="int" >        8       49       49       56       86 </v>
   <v type="int" >        8       48       49       49       86 </v>
   <v type="int" >        4       48       49       85       86 </v>
   <v type="int" >        4       49       56       86       93 </v>
   <v type="int" >        8       49       86       86       93 </v>
   <v type="int" >        8       49       85       86       86 </v>
   <v type="int" >        8       50       56       57       93 </v>
   <v type="int" >        8       49       50       56       93 </v>
   <v type="int" >        4       49       50       86       93 </v>
   <v type="int" >        4       50       57       93       94 </v>
   <v type="int" >        8       50       87       93       94 </v>
   <v type="int" >        8       50       86       87       93 </v>
   <v type="int" >        8       51       57       58       94 </v>
   <v type="int" >        8       50       51       57       94 </v>
   <v type="int" >        4       50       51       87       94 </v>
   <v type="int" >        4       51       58       94       95 </v>
   <v type="int" >        8       51       88       94       95 </v>
   <v type="int" >        8       51       87       88       94 </v>
   <v type="int" >        8       52       58       59       95 </v>
   <v type="int" >        8       51       52       58       95 </v>
   <v type="int" >        4       51       52       88       95 </v>
   <v type="int" >        4       52       59       95       96 </v>
   <v type="int" >        8       52       89       95       96 </v>
   <v type="int" >        8       52       88       89       95 </v>
   <v type="int" >        8       53       59       60       96 </v>
   <v type="int" >        8       52       53       59       96 </v>
   <v type="int" >        4       52       53       89       96 </v>
   <v type="int" >        4       53       60       96       97 </v>
   <v type="int" >        8       53       90       96       97 </v>
   <v type="int" >        8       53       89       90       96 </v>
   <v type="int" >        8       54       60       61       97 </v>
   <v type="int" >        8       53       54       60       97 </v>
   <v type="int" >        4       53       54       90       97 </v>
   <v type="int" >        4       54       61       97       98 </v>
   <v type="int" >        8       54       91       97       98 </v>
   <v type="int" >        8       54       90       91       97 </v>
   <v type="int" >        8       55       61       62       98 </v>
   <v type="int" >        8       54       55       61       98 </v>
   <v type="int" >        4       54       55       91       98 </v>
   <v type="int" >        4       55       62       98       99 </v>
   <v type="int" >        8       55       92       98       99 </v>
   <v type="int" >        8       55       91       92       98 </v>
   <v type="int" >        8       55       61       62       99 </v>
   <v type="int" >        4       55       55       62       99 </v>
   <v type="int" >        4       55       55       92       99 </v>
   <v type="int" >        4       55       61       98       99 </v>
   <v type="int" >        8       55       92       92       99 </v>
   <v type="int" >        8       54       60       61       98 </v>
   <v type="int" >        4       54       55       92       98 </v>
   <v type="int" >        4       54       60       97       98 </v>
   <v type="int" >        8       54       91       92       98 </v>
   <v type="int" >        8       53       59       60       97 </v>
   <v type="int" >        4       53       54       91       97 </v>
   <v type="int" >        4       53       59       96       97 </v>
   <v type="int" >        8       53       90       91       97 </v>
   <v type="int" >        8       52       58       59       96 </v>
   <v type="int" >        4       52       53       90       96 </v>
   <v type="int" >        4       52       58       95       96 </v>
   <v type="int" >        8       52       89       90       96 </v>
   <v type="int" >        8       51       57       58       95 </v>
   <v type="int" >        4       51       52       89       95 </v>
   <v type="int" >        4       51       57       94       95 </v>
   <v type="int" >        8       51       88       89       95 </v>
   <v type="int" >        8       50       56       57       94 </v>
   <v type="int" >        4       50       51       88       94 </v>
   <v type="int" >        4       50       56       93       94 </v>
   <v type="int" >        8       50       87       88       94 </v>
   <v type="int" >        4       49       49       56       93 </v>
   <v type="int" >        4       49       50       87       93 </v>
   <v type="int" >        4       49       49       86       93 </v>
   <v type="int" >        8       49       86       87       93 </v>
   <v type="int" >        4       48       49       86       86 </v>
   <v type="int" >        4       40       48       77       86 </v>
   <v type="int" >        4       48       85       86       86 </v>
   <v type="int" >        4       39       48       77       85 </v>
   <v type="int" >        8       41       49       50       78 </v>
   <v type="int" >        8       40       41       49       78 </v>
   <v type="int" >        4       40       49       77       78 </v>
   <v type="int" >        4       49       50       78       87 </v>
   <v type="int" >        8       49       78       86       87 </v>
   <v type="int" >        8       49       77       78       86 </v>
   <v type="int" >        8       50       56       57       87 </v>
   <v type="int" >        8       49       50       56       87 </v>
   <v type="int" >        4       49       56       86       87 </v>
   <v type="int" >        4       56       57       87       94 </v>
   <v type="int" >        8       56       87       93       94 </v>
   <v type="int" >        8       56       86       87       93 </v>
   <v type="int" >        8       57       57       63       94 </v>
   <v type="int" >        8       56       57       57       94 </v>
   <v type="int" >        4       56       57       93       94 </v>
   <v type="int" >        4       57       63       94      100 </v>
   <v type="int" >        8       57       94       94      100 </v>
   <v type="int" >        8       57       93       94       94 </v>
   <v type="int" >        8       58       63       64      100 </v>
   <v type="int" >        8       57       58       63      100 </v>
   <v type="int" >        4       57       58       94      100 </v>
   <v type="int" >        4       58       64      100      101 </v>
   <v type="int" >        8       58       95      100      101 </v>
   <v type="int" >        8       58       94       95      100 </v>
   <v type="int" >        8       59       64       65      101 </v>
   <v type="int" >        8       58       59       64      101 </v>
   <v type="int" >        4       58       59       95      101 </v>
   <v type="int" >        4       59       65      101      102 </v>
   <v type="int" >        8       59       96      101      102 </v>
   <v type="int" >        8       59       95       96      101 </v>
   <v type="int" >        8       60       65       66      102 </v>
   <v type="int" >        8       59       60       65      102 </v>
   <v type="int" >        4       59       60       96      102 </v>
   <v type="int" >        4       60       66      102      103 </v>
   <v type="int" >        8       60       97      102      103 </v>
   <v type="int" >        8       60       96       97      102 </v>
   <v type="int" >        8       61       66       67      103 </v>
   <v type="int" >        8       60       61       66      103 </v>
   <v type="int" >        4       60       61       97      103 </v>
   <v type="int" >        4       61       67      103      104 </v>
   <v type="int" >        8       61       98      103      104 </v>
   <v type="int" >        8       61       97       98      103 </v>
   <v type="int" >        8       62       67       67      104 </v>
   <v type="int" >        8       61       62       67      104 </v>
   <v type="int" >        4       61       62       98      104 </v>
   <v type="int" >        4       62       67      104      104 </v>
   <v type="int" >        4       62       99      104      104 </v>
   <v type="int" >        8       62       98       99      104 </v>
   <v type="int" >        8       61       66       67      104 </v>
   <v type="int" >        4       61       62       99      104 </v>
   <v type="int" >        4       61       66      103      104 </v>
   <v type="int" >        8       61       98       99      104 </v>
   <v type="int" >        8       60       65       66      103 </v>
   <v type="int" >        4       60       61       98      103 </v>
   <v type="int" >        4       60       65      102      103 </v>
   <v type="int" >        8       60       97       98      103 </v>
   <v type="int" >        8       59       64       65      102 </v>
   <v type="int" >        4       59       60       97      102 </v>
   <v type="int" >        4       59       64      101      102 </v>
   <v type="int" >        8       59       96       97      102 </v>
   <v type="int" >        8       58       63       64      101 </v>
   <v type="int" >        4       58       59       96      101 </v>
   <v type="int" >        4       58       63      100      101 </v>
   <v type="int" >        8       58       95       96      101 </v>
   <v type="int" >        4       57       57       63      100 </v>
   <v type="int" >        4       57       58       95      100 </v>
   <v type="int" >        4       57       57       94      100 </v>
   <v type="int" >        8       57       94       95      100 </v>
   <v type="int" >        4       56       57       94       94 </v>
   <v type="int" >        4       50       56       87       94 </v>
   <v type="int" >        4       56       93       94       94 </v>
   <v type="int" >        4       49       56       87       93 </v>
   <v type="int" >        4       41       49       78       87 </v>
   <v type="int" >        4       40       49       78       86 </v>
   <v type="int" >        8       42       50       51       79 </v>
   <v type="int" >        8       41       42       50       79 </v>
   <v type="int" >        4       41       50       78       79 </v>
   <v type="int" >        4       50       51       79       88 </v>
   <v type="int" >        8       50       79       87       88 </v>
   <v type="int" >        8       50       78       79       87 </v>
   <v type="int" >        8       51       57       58       88 </v>
   <v type="int" >        8       50       51       57       88 </v>
   <v type="int" >        4       50       57       87       88 </v>
   <v type="int" >        4       57       58       88       95 </v>
   <v type="int" >        8       57       88       94       95 </v>
   <v type="int" >        8       57       87       88       94 </v>
   <v type="int" >        8       58       63       64       95 </v>
   <v type="int" >        8       57       58       63       95 </v>
   <v type="int" >        4       57       63       94       95 </v>
   <v type="int" >        4       63       64       95      101 </v>
   <v type="int" >        8       63       95      100      101 </v>
   <v type="int" >        8       63       94       95      100 </v>
   <v type="int" >        8       64       64       68      101 </v>
   <v type="int" >        8       63       64       64      101 </v>
   <v type="int" >        4       63       64      100      101 </v>
   <v type="int" >        4       64       68      101      105 </v>
   <v type="int" >        8       64      101      101      105 </v>
   <v type="int" >        8       64      100      101      101 </v>
   <v type="int" >        8       65       68       69      105 </v>
   <v type="int" >        8       64       65       68      105 </v>
   <v type="int" >        4       64       65      101      105 </v>
   <v type="int" >        4       65       69      105      106 </v>
   <v type="int" >        8       65      102      105      106 </v>
   <v type="int" >        8       65      101      102      105 </v>
   <v type="int" >        8       66       69       70      106 </v>
   <v type="int" >        8       65       66       69      106 </v>
   <v type="int" >        4       65       66      102      106 </v>
   <v type="int" >        4       66       70      106      107 </v>
   <v type="int" >        8       66      103      106      107 </v>
   <v type="int" >        8       66      102      103      106 </v>
   <v type="int" >        8       67       70       71      107 </v>
   <v type="int" >        8       66       67       70      107 </v>
   <v type="int" >        4       66       67      103      107 </v>
   <v type="int" >        4       67       71      107      108 </v>
   <v type="int" >        8       67      104      107      108 </v>
   <v type="int" >        8       67      103      104      107 </v>
   <v type="int" >        8       67       70       71      108 </v>
   <v type="int" >        4       67       67       71      108 </v>
   <v type="int" >        4       67       67      104      108 </v>
   <v type="int" >        4       67       70      107      108 </v>
   <v type="int" >        8       67      104      104      108 </v>
   <v type="int" >        8       66       69       70      107 </v>
   <v type="int" >        4       66       67      104      107 </v>
   <v type="int" >        4       66       69      106      107 </v>
   <v type="int" >        8       66      103      104      107 </v>
   <v type="int" >        8       65       68       69      106 </v>
   <v type="int" >        4       65       66      103      106 </v>
   <v type="int" >        4       65       68      105      106 </v>
   <v type="int" >        8       65      102      103      106 </v>
   <v type="int" >        4       64       64       68      105 </v>
   <v type="int" >        4       64       65      102      105 </v>
   <v type="int" >        4       64       64      101      105 </v>
   <v type="int" >        8       64      101      102      105 </v>
   <v type="int" >        4       63       64      101      101 </v>
   <v type="int" >        4       58       63       95      101 </v>
   <v type="int" >        4       63      100      101      101 </v>
   <v type="int" >        4       57       63       95      100 </v>
   <v type="int" >        4       51       57       88       95 </v>
   <v type="int" >        4       50       57       88       94 </v>
   <v type="int" >        4       42       50       79       88 </v>
   <v type="int" >        4       41       50       79       87 </v>
[...]
       <r>    0.1936    1.0000 </r>
       <r>    1.2492    1.0000 </r>
       <r>    1.2492    1.0000 </r>
       <r>    2.8113    1.0000 </r>
       <r>    2.8113    1.0000 </r>
       <r>    5.1094    0.0000 </r>
       <r>    5.1094    0.0000 </r>
       <r>    6.1789    0.0000 </r>
       <r>    6.2951    0.0000 </r>
      </set>
      <set comment="kpoint 108">
       <r>   -8.9580    1.0000 </r>
       <r>   -8.9580    1.0000 </r>
       <r>   -8.7705    1.0000 </r>
       <r>   -8.7705    1.0000 </r>
       <r>   -2.0665    1.0000 </r>
       <r>   -2.0665    1.0000 </r>
       <r>   -1.9372    1.0000 </r>
       <r>   -1.9372    1.0000 </r>
       <r>   -0.7671    1.0000 </r>
       <r>   -0.7671    1.0000 </r>
       <r>    0.0785    1.0000 </r>
       <r>    0.0785    1.0000 </r>
       <r>    0.1758    1.0000 </r>
       <r>    0.1758    1.0000 </r>
       <r>    1.1521    1.0000 </r>
       <r>    1.1521    1.0000 </r>
       <r>    2.9103    1.0000 </r>
       <r>    2.9103    1.0000 </r>
       <r>    5.0228    0.0000 </r>
       <r>    5.0228    0.0000 </r>
       <r>    6.2854    0.0000 </r>
       <r>    6.3130    0.0000 </r>
      </set>
      <set comment="kpoint 109">
       <r>   -9.0037    1.0000 </r>
       <r>   -9.0037    1.0000 </r>
       <r>   -8.7890    1.0000 </r>
       <r>   -8.7890    1.0000 </r>
       <r>   -2.0167    1.0000 </r>
       <r>   -2.0167    1.0000 </r>
       <r>   -1.8382    1.0000 </r>
       <r>   -1.8382    1.0000 </r>
       <r>   -0.5232    1.0000 </r>
       <r>   -0.5232    1.0000 </r>
       <r>   -0.1538    1.0000 </r>
       <r>   -0.1538    1.0000 </r>
       <r>    0.0416    1.0000 </r>
       <r>    0.0416    1.0000 </r>
       <r>    1.2465    1.0000 </r>
       <r>    1.2465    1.0000 </r>
       <r>    2.8221    1.0000 </r>
       <r>    2.8221    1.0000 </r>
       <r>    5.0666    0.0000 </r>
       <r>    5.0666    0.0000 </r>
       <r>    6.1666    0.0000 </r>
       <r>    6.1881    0.0000 </r>
      </set>
      <set comment="kpoint 110">
       <r>   -8.9165    1.0000 </r>
       <r>   -8.9165    1.0000 </r>
       <r>   -8.7429    1.0000 </r>
       <r>   -8.7429    1.0000 </r>
       <r>   -2.1649    1.0000 </r>
       <r>   -2.1649    1.0000 </r>
       <r>   -1.6630    1.0000 </r>
       <r>   -1.6630    1.0000 </r>
       <r>   -0.7347    1.0000 </r>
       <r>   -0.7347    1.0000 </r>
       <r>   -0.2995    1.0000 </r>
       <r>   -0.2995    1.0000 </r>
       <r>    0.1672    1.0000 </r>
       <r>    0.1672    1.0000 </r>
       <r>    1.0651    1.0000 </r>
       <r>    1.0652    1.0000 </r>
       <r>    3.0043    1.0000 </r>
       <r>    3.0043    1.0000 </r>
       <r>    4.8745    0.0000 </r>
       <r>    4.8745    0.0000 </r>
       <r>    6.1758    0.0000 </r>
       <r>    6.1784    0.0000 </r>
      </set>
      <set comment="kpoint 111">
       <r>   -8.8832    1.0000 </r>
       <r>   -8.8832    1.0000 </r>
       <r>   -8.7234    1.0000 </r>
       <r>   -8.7234    1.0000 </r>
       <r>   -2.2296    1.0000 </r>
       <r>   -2.2296    1.0000 </r>
       <r>   -1.4208    1.0000 </r>
       <r>   -1.4208    1.0000 </r>
       <r>   -0.9267    1.0000 </r>
       <r>   -0.9267    1.0000 </r>
       <r>   -0.4405    1.0000 </r>
       <r>   -0.4405    1.0000 </r>
       <r>    0.2466    1.0000 </r>
       <r>    0.2466    1.0000 </r>
       <r>    0.9707    1.0000 </r>
       <r>    0.9707    1.0000 </r>
       <r>    3.0982    1.0000 </r>
       <r>    3.0982    1.0000 </r>
       <r>    4.7586    0.0000 </r>
       <r>    4.7586    0.0000 </r>
       <r>    6.1363    0.0000 </r>
       <r>    6.1371    0.0000 </r>
      </set>
     </set>
    </set>
   </array>
  </eigenvalues>
  <separator name="orbital magnetization" >
   <v name="MAGDIPOLOUT">      0.00000000      0.00000000      0.00000000</v>
  </separator>
  <dos>
   <i name="efermi">      3.29922127 </i>
   <total>
    <array>
     <dimension dim="1">gridpoints</dimension>
     <dimension dim="2">spin</dimension>
     <field>energy</field>
     <field>total</field>
     <field>integrated</field>
     <set>
      <set comment="spin 1">
       <r>   -12.9296     0.0000     0.0000 </r>
       <r>   -12.8582     0.0000     0.0000 </r>
       <r>   -12.7868     0.0000     0.0000 </r>
       <r>   -12.7154     0.0000     0.0000 </r>
       <r>   -12.6440     0.0000     0.0000 </r>
       <r>   -12.5726     0.0000     0.0000 </r>
       <r>   -12.5011     0.0000     0.0000 </r>
       <r>   -12.4297     0.0000     0.0000 </r>
       <r>   -12.3583     0.0000     0.0000 </r>
       <r>   -12.2869     0.0000     0.0000 </r>
       <r>   -12.2155     0.0000     0.0000 </r>
       <r>   -12.1441     0.0000     0.0000 </r>
       <r>   -12.0727     0.0000     0.0000 </r>
       <r>   -12.0012     0.0000     0.0000 </r>
       <r>   -11.9298     0.0000     0.0000 </r>
       <r>   -11.8584     0.0000     0.0000 </r>
       <r>   -11.7870     0.0000     0.0000 </r>
       <r>   -11.7156     0.0000     0.0000 </r>
       <r>   -11.6442     0.0000     0.0000 </r>
       <r>   -11.5728     0.0000     0.0000 </r>
       <r>   -11.5013     0.0000     0.0000 </r>
       <r>   -11.4299     0.0000     0.0000 </r>
       <r>   -11.3585     0.0000     0.0000 </r>
       <r>   -11.2871     0.0000     0.0000 </r>
       <r>   -11.2157     0.0000     0.0000 </r>
       <r>   -11.1443     0.0000     0.0000 </r>
       <r>   -11.0729     0.0000     0.0000 </r>
       <r>   -11.0014     0.0000     0.0000 </r>
       <r>   -10.9300     0.0000     0.0000 </r>
       <r>   -10.8586     0.9342     0.0536 </r>
       <r>   -10.7872     1.1433     0.1290 </r>
       <r>   -10.7158     1.0607     0.2049 </r>
       <r>   -10.6444     1.1586     0.2841 </r>
       <r>   -10.5730     1.1170     0.3646 </r>
       <r>   -10.5015     1.1586     0.4455 </r>
       <r>   -10.4301     1.2133     0.5303 </r>
       <r>   -10.3587     1.2089     0.6162 </r>
       <r>   -10.2873     1.2454     0.7038 </r>
       <r>   -10.2159     1.2938     0.7944 </r>
       <r>   -10.1445     1.3278     0.8882 </r>
       <r>   -10.0731     1.3703     0.9844 </r>
       <r>   -10.0016     1.4189     1.0840 </r>
       <r>    -9.9302     1.4699     1.1871 </r>
       <r>    -9.8588     1.5489     1.2949 </r>
       <r>    -9.7874     1.6221     1.4081 </r>
       <r>    -9.7160     2.2629     1.5293 </r>
       <r>    -9.6446     4.0470     1.7877 </r>
       <r>    -9.5732     4.3370     2.0849 </r>
       <r>    -9.5017     4.5818     2.4003 </r>
       <r>    -9.4303     4.8450     2.7372 </r>
       <r>    -9.3589     5.3802     3.0985 </r>
       <r>    -9.2875     6.0442     3.5057 </r>
       <r>    -9.2161     6.9688     3.9680 </r>
       <r>    -9.1447     9.7518     4.5312 </r>
       <r>    -9.0733     7.9545     5.2124 </r>
       <r>    -9.0018     8.8779     5.7975 </r>
       <r>    -8.9304    10.1527     6.4454 </r>
       <r>    -8.8590     8.1695     7.2464 </r>
       <r>    -8.7876     6.0721     7.7023 </r>
       <r>    -8.7162     0.0000     8.0000 </r>
       <r>    -8.6448     0.0000     8.0000 </r>
       <r>    -8.5734     0.0000     8.0000 </r>
       <r>    -8.5020     0.0000     8.0000 </r>
       <r>    -8.4305     0.0000     8.0000 </r>
       <r>    -8.3591     0.0000     8.0000 </r>
       <r>    -8.2877     0.0000     8.0000 </r>
       <r>    -8.2163     0.0000     8.0000 </r>
       <r>    -8.1449     0.0000     8.0000 </r>
       <r>    -8.0735     0.0000     8.0000 </r>
       <r>    -8.0021     0.0000     8.0000 </r>
       <r>    -7.9306     0.0000     8.0000 </r>
       <r>    -7.8592     0.0000     8.0000 </r>
       <r>    -7.7878     0.0000     8.0000 </r>
       <r>    -7.7164     0.0000     8.0000 </r>
       <r>    -7.6450     0.0000     8.0000 </r>
       <r>    -7.5736     0.0000     8.0000 </r>
       <r>    -7.5022     0.0000     8.0000 </r>
       <r>    -7.4307     0.0000     8.0000 </r>
       <r>    -7.3593     0.0000     8.0000 </r>
       <r>    -7.2879     0.0000     8.0000 </r>
       <r>    -7.2165     0.0000     8.0000 </r>
       <r>    -7.1451     0.0000     8.0000 </r>
       <r>    -7.0737     0.0000     8.0000 </r>
       <r>    -7.0023     0.0000     8.0000 </r>
       <r>    -6.9308     0.0000     8.0000 </r>
       <r>    -6.8594     0.0000     8.0000 </r>
       <r>    -6.7880     0.0000     8.0000 </r>
       <r>    -6.7166     0.0000     8.0000 </r>
       <r>    -6.6452     0.0000     8.0000 </r>
       <r>    -6.5738     0.0000     8.0000 </r>
       <r>    -6.5024     0.0000     8.0000 </r>
       <r>    -6.4309     0.0000     8.0000 </r>
       <r>    -6.3595     0.0000     8.0000 </r>
       <r>    -6.2881     0.0000     8.0000 </r>
       <r>    -6.2167     0.0000     8.0000 </r>
       <r>    -6.1453     0.0000     8.0000 </r>
       <r>    -6.0739     0.0000     8.0000 </r>
       <r>    -6.0025     0.0000     8.0000 </r>
       <r>    -5.9310     0.0000     8.0000 </r>
       <r>    -5.8596     0.0000     8.0000 </r>
       <r>    -5.7882     0.0000     8.0000 </r>
       <r>    -5.7168     0.0000     8.0000 </r>
       <r>    -5.6454     0.0000     8.0000 </r>
       <r>    -5.5740     0.0000     8.0000 </r>
       <r>    -5.5026     0.0000     8.0000 </r>
       <r>    -5.4311     0.0000     8.0000 </r>
       <r>    -5.3597     0.0000     8.0000 </r>
       <r>    -5.2883     0.0000     8.0000 </r>
       <r>    -5.2169     0.0000     8.0000 </r>
       <r>    -5.1455     0.0000     8.0000 </r>
       <r>    -5.0741     0.0000     8.0000 </r>
       <r>    -5.0027     0.0000     8.0000 </r>
       <r>    -4.9312     0.0000     8.0000 </r>
       <r>    -4.8598     0.0000     8.0000 </r>
       <r>    -4.7884     0.0000     8.0000 </r>
       <r>    -4.7170     0.0000     8.0000 </r>
       <r>    -4.6456     0.0000     8.0000 </r>
       <r>    -4.5742     0.0000     8.0000 </r>
       <r>    -4.5028     0.0000     8.0000 </r>
       <r>    -4.4313     0.0000     8.0000 </r>
       <r>    -4.3599     0.0000     8.0000 </r>
       <r>    -4.2885     0.0000     8.0000 </r>
       <r>    -4.2171     0.0000     8.0000 </r>
       <r>    -4.1457     0.0000     8.0000 </r>
       <r>    -4.0743     0.0000     8.0000 </r>
       <r>    -4.0029     0.0000     8.0000 </r>
       <r>    -3.9315     0.0000     8.0000 </r>
       <r>    -3.8600     0.0000     8.0000 </r>
       <r>    -3.7886     0.0000     8.0000 </r>
       <r>    -3.7172     0.0000     8.0000 </r>
       <r>    -3.6458     0.0000     8.0000 </r>
       <r>    -3.5744     0.0000     8.0000 </r>
       <r>    -3.5030     0.0000     8.0000 </r>
       <r>    -3.4316     0.0000     8.0000 </r>
       <r>    -3.3601     0.0000     8.0000 </r>
       <r>    -3.2887     0.0000     8.0000 </r>
       <r>    -3.2173     0.0000     8.0000 </r>
       <r>    -3.1459     0.0000     8.0000 </r>
       <r>    -3.0745     0.0000     8.0000 </r>
       <r>    -3.0031     0.0000     8.0000 </r>
       <r>    -2.9317     0.0000     8.0000 </r>
       <r>    -2.8602     0.0000     8.0000 </r>
       <r>    -2.7888     0.0000     8.0000 </r>
       <r>    -2.7174     0.0000     8.0000 </r>
       <r>    -2.6460     0.0000     8.0000 </r>
       <r>    -2.5746     1.3082     8.0187 </r>
       <r>    -2.5032     2.0441     8.1706 </r>
       <r>    -2.4318     2.8045     8.3469 </r>
       <r>    -2.3603     3.1976     8.5616 </r>
       <r>    -2.2889     3.5557     8.8056 </r>
       <r>    -2.2175     4.3383     9.0751 </r>
       <r>    -2.1461     5.9786     9.4804 </r>
       <r>    -2.0747     6.7865     9.9360 </r>
       <r>    -2.0033     9.3095    10.4411 </r>
       <r>    -1.9319     8.6542    11.0535 </r>
       <r>    -1.8604     9.4532    11.7227 </r>
       <r>    -1.7890     7.3121    12.3798 </r>
       <r>    -1.7176     3.4878    12.7684 </r>
       <r>    -1.6462     5.1113    13.0450 </r>
       <r>    -1.5748     3.2919    13.3307 </r>
       <r>    -1.5034     2.5246    13.5363 </r>
       <r>    -1.4320     2.0322    13.6983 </r>
       <r>    -1.3605     1.7325    13.8311 </r>
       <r>    -1.2891     1.6153    13.9505 </r>
       <r>    -1.2177     1.5084    14.0619 </r>
       <r>    -1.1463     1.4360    14.1669 </r>
       <r>    -1.0749     1.3737    14.2671 </r>
       <r>    -1.0035     1.3810    14.3650 </r>
       <r>    -0.9321     3.6862    14.5051 </r>
       <r>    -0.8606     7.4120    14.9158 </r>
       <r>    -0.7892     9.8920    15.5303 </r>
       <r>    -0.7178    11.3314    16.3540 </r>
       <r>    -0.6464    10.2711    17.1114 </r>
       <r>    -0.5750     7.5538    17.7495 </r>
       <r>    -0.5036     4.5047    18.2222 </r>
       <r>    -0.4322     2.2110    18.3986 </r>
       <r>    -0.3607     2.4295    18.5628 </r>
       <r>    -0.2893     2.5410    18.7490 </r>
       <r>    -0.2179     2.4349    18.9247 </r>
       <r>    -0.1465     5.6972    19.2013 </r>
       <r>    -0.0751     9.4958    19.7689 </r>
       <r>    -0.0037    14.9377    20.8912 </r>
       <r>     0.0677     6.2817    21.5359 </r>
       <r>     0.1391     5.4040    21.9413 </r>
       <r>     0.2106     5.2032    22.4598 </r>
       <r>     0.2820     3.8248    22.7674 </r>
       <r>     0.3534     3.3446    23.0164 </r>
       <r>     0.4248     3.4668    23.2517 </r>
       <r>     0.4962     2.8882    23.4787 </r>
       <r>     0.5676     4.3209    23.7074 </r>
       <r>     0.6390     3.4074    23.9709 </r>
       <r>     0.7105     2.7171    24.1661 </r>
       <r>     0.7819     4.3632    24.4143 </r>
       <r>     0.8533     4.1266    24.7774 </r>
       <r>     0.9247     1.6059    24.9733 </r>
       <r>     0.9961     2.1996    25.0936 </r>
       <r>     1.0675     7.1242    25.3977 </r>
       <r>     1.1389     6.0815    25.9282 </r>
       <r>     1.2104     7.1053    26.4452 </r>
       <r>     1.2818    12.6872    27.0952 </r>
       <r>     1.3532     9.0642    27.9044 </r>
       <r>     1.4246     6.4042    28.4234 </r>
       <r>     1.4960     6.5576    28.8674 </r>
       <r>     1.5674     3.4537    29.2109 </r>
       <r>     1.6388     3.6748    29.4374 </r>
       <r>     1.7103     5.5117    29.7997 </r>
       <r>     1.7817     4.3044    30.1731 </r>
       <r>     1.8531     4.2948    30.4735 </r>
       <r>     1.9245     4.7467    30.7948 </r>
       <r>     1.9959     5.0975    31.1562 </r>
       <r>     2.0673     4.6262    31.5061 </r>
       <r>     2.1387     2.7448    31.7634 </r>
       <r>     2.2102     4.3872    31.9997 </r>
       <r>     2.2816     5.4594    32.3565 </r>
       <r>     2.3530     6.3565    32.9396 </r>
       <r>     2.4244     6.2964    33.3875 </r>
       <r>     2.4958     5.4663    33.8031 </r>
       <r>     2.5672     5.1725    34.1830 </r>
       <r>     2.6386     4.7077    34.5302 </r>
       <r>     2.7101     4.0611    34.8431 </r>
       <r>     2.7815     3.5321    35.1215 </r>
       <r>     2.8529     3.1757    35.3624 </r>
       <r>     2.9243     2.8224    35.5718 </r>
       <r>     2.9957     2.2318    35.7504 </r>
       <r>     3.0671     1.2795    35.8878 </r>
       <r>     3.1385     0.6008    35.9443 </r>
       <r>     3.2100     0.3813    35.9804 </r>
       <r>     3.2814     0.0482    35.9997 </r>
       <r>     3.3528     0.0000    36.0000 </r>
       <r>     3.4242     0.0000    36.0000 </r>
       <r>     3.4956     0.0000    36.0000 </r>
       <r>     3.5670     0.0000    36.0000 </r>
       <r>     3.6384     0.0000    36.0000 </r>
       <r>     3.7099     0.0000    36.0000 </r>
       <r>     3.7813     0.0000    36.0000 </r>
       <r>     3.8527     0.0000    36.0000 </r>
       <r>     3.9241     0.0000    36.0000 </r>
       <r>     3.9955     0.0000    36.0000 </r>
       <r>     4.0669     0.0000    36.0000 </r>
       <r>     4.1383     0.0000    36.0000 </r>
       <r>     4.2098     0.0000    36.0000 </r>
       <r>     4.2812     0.0000    36.0000 </r>
       <r>     4.3526     0.0000    36.0000 </r>
       <r>     4.4240     0.0000    36.0000 </r>
       <r>     4.4954     0.0000    36.0000 </r>
       <r>     4.5668     0.0000    36.0000 </r>
       <r>     4.6382     0.0000    36.0000 </r>
       <r>     4.7096     0.0000    36.0000 </r>
       <r>     4.7811     0.2487    36.0028 </r>
       <r>     4.8525     1.0387    36.0488 </r>
       <r>     4.9239     1.0692    36.1211 </r>
       <r>     4.9953     2.7920    36.2609 </r>
       <r>     5.0667     4.2886    36.5080 </r>
       <r>     5.1381     7.3936    36.9160 </r>
       <r>     5.2095    10.2924    37.5564 </r>
       <r>     5.2810    23.1986    38.6218 </r>
       <r>     5.3524     3.0570    39.4828 </r>
       <r>     5.4238     3.5308    39.6865 </r>
       <r>     5.4952     5.7917    40.0155 </r>
       <r>     5.5666     9.3430    40.6033 </r>
       <r>     5.6380     9.8894    41.2386 </r>
       <r>     5.7094     7.3237    41.8172 </r>
       <r>     5.7809     7.1656    42.3284 </r>
       <r>     5.8523     4.5222    42.7774 </r>
       <r>     5.9237     2.7086    43.0455 </r>
       <r>     5.9951     1.9962    43.2271 </r>
       <r>     6.0665     1.6971    43.3590 </r>
       <r>     6.1379     2.7369    43.5201 </r>
       <r>     6.2093     2.6088    43.7049 </r>
       <r>     6.2808     1.3130    43.8667 </r>
       <r>     6.3522     0.8515    43.9400 </r>
       <r>     6.4236     0.3847    43.9815 </r>
       <r>     6.4950     0.0000    44.0000 </r>
       <r>     6.5664     0.0000    44.0000 </r>
       <r>     6.6378     0.0000    44.0000 </r>
       <r>     6.7092     0.0000    44.0000 </r>
       <r>     6.7807     0.0000    44.0000 </r>
       <r>     6.8521     0.0000    44.0000 </r>
       <r>     6.9235     0.0000    44.0000 </r>
       <r>     6.9949     0.0000    44.0000 </r>
       <r>     7.0663     0.0000    44.0000 </r>
       <r>     7.1377     0.0000    44.0000 </r>
       <r>     7.2091     0.0000    44.0000 </r>
       <r>     7.2806     0.0000    44.0000 </r>
       <r>     7.3520     0.0000    44.0000 </r>
       <r>     7.4234     0.0000    44.0000 </r>
       <r>     7.4948     0.0000    44.0000 </r>
       <r>     7.5662     0.0000    44.0000 </r>
       <r>     7.6376     0.0000    44.0000 </r>
       <r>     7.7090     0.0000    44.0000 </r>
       <r>     7.7805     0.0000    44.0000 </r>
       <r>     7.8519     0.0000    44.0000 </r>
       <r>     7.9233     0.0000    44.0000 </r>
       <r>     7.9947     0.0000    44.0000 </r>
       <r>     8.0661     0.0000    44.0000 </r>
       <r>     8.1375     0.0000    44.0000 </r>
       <r>     8.2089     0.0000    44.0000 </r>
       <r>     8.2804     0.0000    44.0000 </r>
       <r>     8.3518     0.0000    44.0000 </r>
       <r>     8.4232     0.0000    44.0000 </r>
       <r>     8.4946     0.0000    44.0000 </r>
      </set>
     </set>
    </array>
   </total>
  </dos>
 </calculation>
 <structure name="finalpos" >
  <crystal>
   <varray name="basis" >
    <v>       3.19031573       0.00000000       0.00000000 </v>
    <v>      -1.59515786       2.76289447       0.00000000 </v>
    <v>       0.00000000       0.00000000      14.87900430 </v>
   </varray>
   <i name="volume">    131.15106795 </i>
   <varray name="rec_basis" >
    <v>       0.31344860       0.18096963       0.00000000 </v>
    <v>       0.00000000       0.36193927       0.00000000 </v>
    <v>       0.00000000       0.00000000       0.06720880 </v>
   </varray>
  </crystal>
  <varray name="positions" >
   <v>       0.33333300       0.66666700       0.25000000 </v>
   <v>       0.66666700       0.33333300       0.75000000 </v>
   <v>       0.33333300       0.66666700       0.85517400 </v>
   <v>       0.66666700       0.33333300       0.14482600 </v>
   <v>       0.66666600       0.33333300       0.35517400 </v>
   <v>       0.33333400       0.66666700       0.64482600 </v>
  </varray>
 </structure>
</modeling>
