    3    3   50    1
  0.9045187E+02  0.3189857E-09  0.3189857E-09  0.3079398E-08  0.5000000E-15
  1.000000000000000E-004
  CAR 
 unknown system                          
     18     14     14
 
  0.0000000E+00  0.0000000E+00  0.0000000E+00  0.1000000E-01
    1      -17.806258   1.000000
    2      -16.577762   1.000000
    3       -9.324050   1.000000
    4       -6.379210   1.000000
    5       -6.379204   1.000000
    6       -5.468032   1.000000
    7       -5.263790   1.000000
    8       -5.263758   1.000000
    9       -3.742403   1.000000
   10       -0.985657   0.000000
   11       -0.985626   0.000000
   12       -0.747557   0.000000
   13       -0.747543   0.000000
   14        1.668155   0.000000
 
  0.1000000E+00 -0.1387779E-16  0.0000000E+00  0.6000000E-01
    1      -17.667596   1.000000
    2      -16.512257   1.000000
    3       -9.163188   1.000000
    4       -6.689610   1.000000
    5       -6.226359   1.000000
    6       -6.107493   1.000000
    7       -5.489668   1.000000
    8       -4.851945   1.000000
    9       -3.825533   1.000000
   10       -1.160576   0.000000
   11       -1.112179   0.000000
   12       -0.908119   0.000000
   13       -0.743286   0.000000
   14        1.920446   0.000000
 
  0.2000000E+00 -0.1387779E-16  0.0000000E+00  0.6000000E-01
    1      -17.281346   1.000000
    2      -16.330964   1.000000
    3       -8.808200   1.000000
    4       -7.323330   1.000000
    5       -6.890334   1.000000
    6       -5.980404   1.000000
    7       -5.814306   1.000000
    8       -4.875769   1.000000
    9       -4.196896   1.000000
   10       -1.539476   0.000000
   11       -1.249113   0.000000
   12       -1.100352   0.000000
   13       -0.240882   0.000000
   14        2.485492   0.000000
 
  0.3000000E+00 -0.2775558E-16  0.0000000E+00  0.6000000E-01
    1      -16.743649   1.000000
    2      -16.083290   1.000000
    3       -8.819421   1.000000
    4       -7.662843   1.000000
    5       -7.631608   1.000000
    6       -6.465658   1.000000
    7       -5.289093   1.000000
    8       -5.231760   1.000000
    9       -4.663829   1.000000
   10       -1.523313   0.000000
   11       -1.507626   0.000000
   12       -0.564252   0.000000
   13        0.196533   0.000000
   14        3.241028   0.000000
 
  0.4000000E+00 -0.2775558E-16  0.0000000E+00  0.6000000E-01
    1      -16.237235   1.000000
    2      -15.858227   1.000000
    3       -9.262972   1.000000
    4       -8.273894   1.000000
    5       -7.713412   1.000000
    6       -6.797878   1.000000
    7       -5.503733   1.000000
    8       -4.872127   1.000000
    9       -4.598871   1.000000
   10       -1.600013   0.000000
   11       -1.235030   0.000000
   12       -0.032843   0.000000
   13        0.443521   0.000000
   14        3.104725   0.000000
 
  0.5000000E+00 -0.2775558E-16  0.0000000E+00  0.3000000E-01
    1      -16.019414   1.000000
    2      -15.764859   1.000000
    3       -9.481790   1.000000
    4       -8.510991   1.000000
    5       -7.809901   1.000000
    6       -6.914336   1.000000
    7       -5.591777   1.000000
    8       -4.722911   1.000000
    9       -4.383637   1.000000
   10       -1.581035   0.000000
   11       -1.057901   0.000000
   12        0.159342   0.000000
   13        0.517721   0.000000
   14        2.427636   0.000000
 
  0.1000000E+00  0.1000000E+00  0.0000000E+00  0.6000000E-01
    1      -17.404774   1.000000
    2      -16.388472   1.000000
    3       -8.894311   1.000000
    4       -7.147575   1.000000
    5       -6.599088   1.000000
    6       -6.027813   1.000000
    7       -5.964507   1.000000
    8       -4.671107   1.000000
    9       -4.057650   1.000000
   10       -1.482989   0.000000
   11       -1.296044   0.000000
   12       -1.166643   0.000000
   13       -0.305093   0.000000
   14        2.320893   0.000000
 
  0.2000000E+00  0.1000000E+00  0.0000000E+00  0.1200000E+00
    1      -16.939822   1.000000
    2      -16.171083   1.000000
    3       -8.674593   1.000000
    4       -7.561534   1.000000
    5       -7.274040   1.000000
    6       -6.634605   1.000000
    7       -5.637214   1.000000
    8       -4.824051   1.000000
    9       -4.490513   1.000000
   10       -1.735657   0.000000
   11       -1.335175   0.000000
   12       -1.065665   0.000000
   13        0.215730   0.000000
   14        3.009522   0.000000
 
  0.3000000E+00  0.1000000E+00  0.0000000E+00  0.1200000E+00
    1      -16.407626   1.000000
    2      -15.926923   1.000000
    3       -8.968938   1.000000
    4       -8.061963   1.000000
    5       -7.585879   1.000000
    6       -6.868917   1.000000
    7       -5.529563   1.000000
    8       -5.230814   1.000000
    9       -4.534110   1.000000
   10       -1.649491   0.000000
   11       -1.293112   0.000000
   12       -0.509942   0.000000
   13        0.495709   0.000000
   14        3.686357   0.000000
 
  0.4000000E+00  0.1000000E+00  0.0000000E+00  0.1200000E+00
    1      -16.029858   1.000000
    2      -15.758479   1.000000
    3       -9.290214   1.000000
    4       -8.557216   1.000000
    5       -7.728222   1.000000
    6       -6.917992   1.000000
    7       -5.535473   1.000000
    8       -5.408087   1.000000
    9       -4.245150   1.000000
   10       -1.553895   0.000000
   11       -1.054318   0.000000
   12       -0.004776   0.000000
   13        0.444186   0.000000
   14        2.781600   0.000000
 
  0.2000000E+00  0.2000000E+00  0.0000000E+00  0.6000000E-01
    1      -16.472700   1.000000
    2      -15.950694   1.000000
    3       -8.773861   1.000000
    4       -7.928709   1.000000
    5       -7.459295   1.000000
    6       -7.041754   1.000000
    7       -5.985083   1.000000
    8       -4.973916   1.000000
    9       -4.528549   1.000000
   10       -1.729458   0.000000
   11       -1.262523   0.000000
   12       -0.891564   0.000000
   13        0.608024   0.000000
   14        3.777061   0.000000
 
  0.3000000E+00  0.2000000E+00  0.0000000E+00  0.1200000E+00
    1      -16.046489   1.000000
    2      -15.748088   1.000000
    3       -8.913697   1.000000
    4       -8.624398   1.000000
    5       -7.465944   1.000000
    6       -6.953361   1.000000
    7       -6.410464   1.000000
    8       -5.399423   1.000000
    9       -4.260319   1.000000
   10       -1.592012   0.000000
   11       -1.005602   0.000000
   12       -0.575085   0.000000
   13        0.757390   0.000000
   14        3.560008   0.000000
 
  0.4000000E+00  0.2000000E+00  0.0000000E+00  0.6000000E-01
    1      -15.868893   1.000000
    2      -15.663321   1.000000
    3       -8.934156   1.000000
    4       -8.892874   1.000000
    5       -7.663296   1.000000
    6       -6.827149   1.000000
    7       -6.466549   1.000000
    8       -5.658488   1.000000
    9       -4.009855   1.000000
   10       -1.773623   0.000000
   11       -0.634181   0.000000
   12       -0.432162   0.000000
   13        0.780194   0.000000
   14        2.971416   0.000000
 
  0.3000000E+00  0.3000000E+00  0.0000000E+00  0.6000000E-01
    1      -15.809994   1.000000
    2      -15.622945   1.000000
    3       -9.043414   1.000000
    4       -8.542879   1.000000
    5       -7.549318   1.000000
    6       -7.227359   1.000000
    7       -6.713204   1.000000
    8       -5.767233   1.000000
    9       -3.887101   1.000000
   10       -1.984766   0.000000
   11       -0.667590   0.000000
   12       -0.401759   0.000000
   13        1.013767   0.000000
   14        3.439820   0.000000
