 vasp.5.4.4.18Apr17-6-g9f103f2a35 (build Jun 30 2017 11:15:00) complex          
  
 executed on    STALLO_VASP_5.4.4 date 2019.11.08  14:47:26
 running on    4 total cores
 distrk:  each k-point on    4 cores,    1 groups
 distr:  one band on NCORES_PER_BAND=   2 cores,    2 groups


--------------------------------------------------------------------------------------------------------


 INCAR:
 POTCAR:   PAW_PBE Mo 08Apr2002                   
 POTCAR:    PAW_PBE S 17Jan2003                   
 POTCAR:   PAW_PBE Mo 08Apr2002                   
   VRHFIN =Mo: 4p5s4d                                                           
   LEXCH  = PE                                                                  
   EATOM  =   217.5180 eV,   15.9871 Ry                                         
                                                                                
   TITEL  = PAW_PBE Mo 08Apr2002                                                
   LULTRA =        F    use ultrasoft PP ?                                      
   IUNSCR =        1    unscreen: 0-lin 1-nonlin 2-no                           
   RPACOR =    2.200    partial core radius                                     
   POMASS =   95.940; ZVAL   =    6.000    mass and valenz                      
   RCORE  =    2.750    outmost cutoff radius                                   
   RWIGS  =    2.750; RWIGS  =    1.455    wigner-seitz radius (au A)           
   ENMAX  =  224.584; ENMIN  =  168.438 eV                                      
   RCLOC  =    2.111    cutoff for local pot                                    
   LCOR   =        T    correct aug charges                                     
   LPAW   =        T    paw PP                                                  
   EAUG   =  345.278                                                            
   DEXC   =    -.088                                                            
   RMAX   =    3.077    core radius for proj-oper                               
   RAUG   =    1.300    factor for augmentation sphere                          
   RDEP   =    2.815    radius for radial grids                                 
   QCUT   =   -4.063; QGAM   =    8.126    optimization parameters              
                                                                                
   Description                                                                  
     l     E      TYP  RCUT    TYP  RCUT                                        
     2   .000     23  2.500                                                     
     2   .000     23  2.500                                                     
     0   .000     23  2.600                                                     
     0  1.000     23  2.600                                                     
     1   .400     23  2.750                                                     
     1  2.000     23  2.750                                                     
     3   .000      7   .000                                                     
  local pseudopotential read in
  partial core-charges read in
  atomic valenz-charges read in
  non local Contribution for L=           2  read in
    real space projection operators read in
  non local Contribution for L=           2  read in
    real space projection operators read in
  non local Contribution for L=           0  read in
    real space projection operators read in
  non local Contribution for L=           0  read in
    real space projection operators read in
  non local Contribution for L=           1  read in
    real space projection operators read in
  non local Contribution for L=           1  read in
    real space projection operators read in
    PAW grid and wavefunctions read in
 
   number of l-projection  operators is LMAX  =           6
   number of lm-projection operators is LMMAX =          18
 
 POTCAR:    PAW_PBE S 17Jan2003                   
   VRHFIN =S : s2p4                                                             
   LEXCH  = PE                                                                  
   EATOM  =   276.8230 eV,   20.3459 Ry                                         
                                                                                
   TITEL  = PAW_PBE S 17Jan2003                                                 
   LULTRA =        F    use ultrasoft PP ?                                      
   IUNSCR =        1    unscreen: 0-lin 1-nonlin 2-no                           
   RPACOR =    1.500    partial core radius                                     
   POMASS =   32.066; ZVAL   =    6.000    mass and valenz                      
   RCORE  =    1.900    outmost cutoff radius                                   
   RWIGS  =    2.200; RWIGS  =    1.164    wigner-seitz radius (au A)           
   ENMAX  =  280.000; ENMIN  =  194.016 eV                                      
   ICORE  =        2    local potential                                         
   LCOR   =        T    correct aug charges                                     
   LPAW   =        T    paw PP                                                  
   EAUG   =  335.092                                                            
   DEXC   =     .000                                                            
   RMAX   =    2.867    core radius for proj-oper                               
   RAUG   =    1.300    factor for augmentation sphere                          
   RDEP   =    1.954    radius for radial grids                                 
   QCUT   =   -4.360; QGAM   =    8.721    optimization parameters              
                                                                                
   Description                                                                  
     l     E      TYP  RCUT    TYP  RCUT                                        
     0   .000     23  1.900                                                     
     0   .000     23  1.900                                                     
     1   .000     23  1.900                                                     
     1   .000     23  1.900                                                     
     2   .000     23  1.900                                                     
  local pseudopotential read in
  partial core-charges read in
  atomic valenz-charges read in
  non local Contribution for L=           0  read in
    real space projection operators read in
  non local Contribution for L=           0  read in
    real space projection operators read in
  non local Contribution for L=           1  read in
    real space projection operators read in
  non local Contribution for L=           1  read in
    real space projection operators read in
    PAW grid and wavefunctions read in
 
   number of l-projection  operators is LMAX  =           4
   number of lm-projection operators is LMMAX =           8
 
 PAW_PBE Mo 08Apr2002                   :
 energy of atom  1       EATOM= -217.5180
 kinetic energy error for atom=    0.0023 (will be added to EATOM!!)
  PAW_PBE S 17Jan2003                   :
 energy of atom  2       EATOM= -276.8230
 kinetic energy error for atom=    0.0033 (will be added to EATOM!!)
 
 
 POSCAR: MoS2_mp-2815_computed                   
  positions in direct lattice
  velocities in cartesian coordinates
 exchange correlation table for  LEXCH =        8
   RHO(1)=    0.500       N(1)  =     2000
   RHO(2)=  100.500       N(2)  =     4000
 


--------------------------------------------------------------------------------------------------------


 ion  position               nearest neighbor table
   1  0.333  0.667  0.120-   3 2.41   2 2.41   2 2.41   3 2.41   3 2.41   2 2.41
   2  0.667  0.333  0.070-   1 2.41   1 2.41   1 2.41
   3  0.667  0.333  0.171-   1 2.41   1 2.41   1 2.41
 
  LATTYP: Found a hexagonal cell.
 ALAT       =     3.1898568304
 C/A-ratio  =     9.6537181778
  
  Lattice vectors:
  
 A1 = (   3.1898568304,   0.0000000000,   0.0000000000)
 A2 = (  -1.5949284152,   2.7624970496,   0.0000000000)
 A3 = (   0.0000000000,   0.0000000000,  30.7939788683)


Analysis of symmetry for initial positions (statically):
=====================================================================
 Subroutine PRICEL returns:
 Original cell was already a primitive cell.
 

 Routine SETGRP: Setting up the symmetry group for a 
 hexagonal supercell.


 Subroutine GETGRP returns: Found 12 space group operations
 (whereof  6 operations were pure point group operations)
 out of a pool of 24 trial point group operations.


The static configuration has the point symmetry C_3v.
 The point group associated with its full space group is D_3h.


Analysis of symmetry for dynamics (positions and initial velocities):
=====================================================================
 Subroutine PRICEL returns:
 Original cell was already a primitive cell.
 

 Routine SETGRP: Setting up the symmetry group for a 
 hexagonal supercell.


 Subroutine GETGRP returns: Found 12 space group operations
 (whereof  6 operations were pure point group operations)
 out of a pool of 24 trial point group operations.


The dynamic configuration has the point symmetry C_3v.
 The point group associated with its full space group is D_3h.


 Subroutine INISYM returns: Found 12 space group operations
 (whereof  6 operations are pure point group operations),
 and found     1 'primitive' translations

 
 
 KPOINTS: k-density: 5.0                          

Automatic generation of k-mesh.
Space group operators:
 irot       det(A)        alpha          n_x          n_y          n_z        tau_x        tau_y        tau_z
    1     1.000000     0.000000     1.000000     0.000000     0.000000     0.000000     0.000000     0.000000
    2     1.000000   120.000000     0.000000     0.000000    -1.000000     0.000000     0.000000     0.000000
    3     1.000000   120.000000     0.000000     0.000000     1.000000     0.000000     0.000000     0.000000
    4    -1.000000   180.000000     1.000000    -0.000000     0.000000     0.000000     0.000000     0.000000
    5    -1.000000   180.000000     0.500000    -0.866025     0.000000     0.000000     0.000000     0.000000
    6    -1.000000   180.000000    -0.500000    -0.866025     0.000000     0.000000     0.000000     0.000000
    7    -1.000000    60.000000     0.000000     0.000000    -1.000000     0.000000     0.000000     0.240924
    8    -1.000000   180.000000     0.000000     0.000000     1.000000     0.000000     0.000000     0.240924
    9    -1.000000    60.000000     0.000000     0.000000     1.000000     0.000000     0.000001     0.240924
   10     1.000000   180.000000     0.866025    -0.500000     0.000000     0.000000     0.000000     0.240924
   11     1.000000   180.000000     0.000000     1.000000     0.000000     0.000000     0.000000     0.240924
   12     1.000000   180.000000     0.866025     0.500000     0.000000     0.000000     0.000001     0.240924
 
 Subroutine IBZKPT returns following result:
 ===========================================
 
 Found     14 irreducible k-points:
 
 Following reciprocal coordinates:
            Coordinates               Weight
  0.000000  0.000000  0.000000      1.000000
  0.100000 -0.000000  0.000000      6.000000
  0.200000 -0.000000  0.000000      6.000000
  0.300000 -0.000000  0.000000      6.000000
  0.400000 -0.000000  0.000000      6.000000
  0.500000 -0.000000  0.000000      3.000000
  0.100000  0.100000  0.000000      6.000000
  0.200000  0.100000  0.000000     12.000000
  0.300000  0.100000  0.000000     12.000000
  0.400000  0.100000  0.000000     12.000000
  0.200000  0.200000  0.000000      6.000000
  0.300000  0.200000  0.000000     12.000000
  0.400000  0.200000  0.000000      6.000000
  0.300000  0.300000  0.000000      6.000000
 
 Following cartesian coordinates:
            Coordinates               Weight
  0.000000  0.000000  0.000000      1.000000
  0.031349  0.018100  0.000000      6.000000
  0.062699  0.036199  0.000000      6.000000
  0.094048  0.054299  0.000000      6.000000
  0.125397  0.072398  0.000000      6.000000
  0.156747  0.090498  0.000000      3.000000
  0.031349  0.054299  0.000000      6.000000
  0.062699  0.072398  0.000000     12.000000
  0.094048  0.090498  0.000000     12.000000
  0.125397  0.108597  0.000000     12.000000
  0.062699  0.108597  0.000000      6.000000
  0.094048  0.126697  0.000000     12.000000
  0.125397  0.144797  0.000000      6.000000
  0.094048  0.162896  0.000000      6.000000
 


--------------------------------------------------------------------------------------------------------




 Dimension of arrays:
   k-points           NKPTS =     14   k-points in BZ     NKDIM =     14   number of bands    NBANDS=     14
   number of dos      NEDOS =    301   number of ions     NIONS =      3
   non local maximal  LDIM  =      6   non local SUM 2l+1 LMDIM =     18
   total plane-waves  NPLWV = 124416
   max r-space proj   IRMAX =      1   max aug-charges    IRDMAX=  29634
   dimension x,y,z NGX =    24 NGY =   24 NGZ =  216
   dimension x,y,z NGXF=    48 NGYF=   48 NGZF=  432
   support grid    NGXF=    48 NGYF=   48 NGZF=  432
   ions per type =               1   2
   NGX,Y,Z   is equivalent  to a cutoff of  12.51, 12.51, 11.66 a.u.
   NGXF,Y,Z  is equivalent  to a cutoff of  25.02, 25.02, 23.32 a.u.

 SYSTEM =  unknown system                          
 POSCAR =  MoS2_mp-2815_computed                   

 Startparameter for this run:
   NWRITE =      2    write-flag & timer
   PREC   = accura    normal or accurate (medium, high low for compatibility)
   ISTART =      0    job   : 0-new  1-cont  2-samecut
   ICHARG =      2    charge: 1-file 2-atom 10-const
   ISPIN  =      1    spin polarized calculation?
   LNONCOLLINEAR =      F non collinear calculations
   LSORBIT =      F    spin-orbit coupling
   INIWAV =      1    electr: 0-lowe 1-rand  2-diag
   LASPH  =      F    aspherical Exc in radial PAW
   METAGGA=      F    non-selfconsistent MetaGGA calc.

 Electronic Relaxation 1
   ENCUT  =  450.0 eV  33.07 Ry    5.75 a.u.   5.52  5.52 53.26*2*pi/ulx,y,z
   ENINI  =  450.0     initial cutoff
   ENAUG  =  345.3 eV  augmentation charge cutoff
   NELM   =    200;   NELMIN=  4; NELMDL= -5     # of ELM steps 
   EDIFF  = 0.1E-05   stopping-criterion for ELM
   LREAL  =      F    real-space projection
   NLSPLINE    = F    spline interpolate recip. space projectors
   LCOMPAT=      F    compatible to vasp.4.4
   GGA_COMPAT  = T    GGA compatible to vasp.4.4-vasp.4.6
   LMAXPAW     = -100 max onsite density
   LMAXMIX     =    2 max onsite mixed and CHGCAR
   VOSKOWN=      0    Vosko Wilk Nusair interpolation
   ROPT   =    0.00000   0.00000
 Ionic relaxation
   EDIFFG = -.1E-01   stopping-criterion for IOM
   NSW    =     50    number of steps for IOM
   NBLOCK =      1;   KBLOCK =     50    inner block; outer block 
   IBRION =      1    ionic relax: 0-MD 1-quasi-New 2-CG
   NFREE  =      0    steps in history (QN), initial steepest desc. (CG)
   ISIF   =      3    stress and relaxation
   IWAVPR =     11    prediction:  0-non 1-charg 2-wave 3-comb
   ISYM   =      2    0-nonsym 1-usesym 2-fastsym
   LCORR  =      T    Harris-Foulkes like correction to forces

   POTIM  = 0.5000    time-step for ionic-motion
   TEIN   =    0.0    initial temperature
   TEBEG  =    0.0;   TEEND  =   0.0 temperature during run
   SMASS  =  -3.00    Nose mass-parameter (am)
   estimated Nose-frequenzy (Omega)   =  0.10E-29 period in steps =****** mass=  -0.233E-27a.u.
   SCALEE = 1.0000    scale energy and forces
   NPACO  =    256;   APACO  = 16.0  distance and # of slots for P.C.
   PSTRESS=    0.0 pullay stress

  Mass of Ions in am
   POMASS =  95.94 32.07
  Ionic Valenz
   ZVAL   =   6.00  6.00
  Atomic Wigner-Seitz radii
   RWIGS  =  -1.00 -1.00
  virtual crystal weights 
   VCA    =   1.00  1.00
   NELECT =      18.0000    total number of electrons
   NUPDOWN=      -1.0000    fix difference up-down

 DOS related values:
   EMIN   =  10.00;   EMAX   =-10.00  energy-range for DOS
   EFERMI =   0.00
   ISMEAR =     0;   SIGMA  =   0.20  broadening in eV -4-tet -1-fermi 0-gaus

 Electronic relaxation 2 (details)
   IALGO  =     38    algorithm
   LDIAG  =      T    sub-space diagonalisation (order eigenvalues)
   LSUBROT=      F    optimize rotation matrix (better conditioning)
   TURBO    =      0    0=normal 1=particle mesh
   IRESTART =      0    0=no restart 2=restart with 2 vectors
   NREBOOT  =      0    no. of reboots
   NMIN     =      0    reboot dimension
   EREF     =   0.00    reference energy to select bands
   IMIX   =      4    mixing-type and parameters
     AMIX     =   0.40;   BMIX     =  1.00
     AMIX_MAG =   1.60;   BMIX_MAG =  1.00
     AMIN     =   0.10
     WC   =   100.;   INIMIX=   1;  MIXPRE=   1;  MAXMIX=  80

 Intra band minimization:
   WEIMIN = 0.0010     energy-eigenvalue tresh-hold
   EBREAK =  0.18E-07  absolut break condition
   DEPER  =   0.30     relativ break condition  

   TIME   =   0.40     timestep for ELM

  volume/ion in A,a.u.               =      90.45       610.40
  Fermi-wavevector in a.u.,A,eV,Ry     =   0.662704  1.252328  5.975355  0.439176
  Thomas-Fermi vector in A             =   1.735856
 
 Write flags
   LWAVE        =      F    write WAVECAR
   LDOWNSAMPLE  =      F    k-point downsampling of WAVECAR
   LCHARG       =      T    write CHGCAR
   LVTOT        =      F    write LOCPOT, total local potential
   LVHAR        =      F    write LOCPOT, Hartree potential only
   LELF         =      F    write electronic localiz. function (ELF)
   LORBIT       =      0    0 simple, 1 ext, 2 COOP (PROOUT), +10 PAW based schemes


 Dipole corrections
   LMONO  =      F    monopole corrections only (constant potential shift)
   LDIPOL =      F    correct potential (dipole corrections)
   IDIPOL =      0    1-x, 2-y, 3-z, 4-all directions 
   EPSILON=  1.0000000 bulk dielectric constant

 Exchange correlation treatment:
   GGA     =    --    GGA type
   LEXCH   =     8    internal setting for exchange type
   VOSKOWN=      0    Vosko Wilk Nusair interpolation
   LHFCALC =     F    Hartree Fock is set to
   LHFONE  =     F    Hartree Fock one center treatment
   AEXX    =    0.0000 exact exchange contribution

 Linear response parameters
   LEPSILON=     F    determine dielectric tensor
   LRPA    =     F    only Hartree local field effects (RPA)
   LNABLA  =     F    use nabla operator in PAW spheres
   LVEL    =     F    velocity operator in full k-point grid
   LINTERFAST=   F  fast interpolation
   KINTER  =     0    interpolate to denser k-point grid
   CSHIFT  =0.1000    complex shift for real part using Kramers Kronig
   OMEGAMAX=  -1.0    maximum frequency
   DEG_THRESHOLD= 0.2000000E-02 threshold for treating states as degnerate
   RTIME   =   -0.100 relaxation time in fs
  (WPLASMAI=    0.000 imaginary part of plasma frequency in eV, 0.658/RTIME)
   DFIELD  = 0.0000000 0.0000000 0.0000000 field for delta impulse in time
 
 Orbital magnetization related:
   ORBITALMAG=     F  switch on orbital magnetization
   LCHIMAG   =     F  perturbation theory with respect to B field
   DQ        =  0.001000  dq finite difference perturbation B field
   LLRAUG    =     F  two centre corrections for induced B field



--------------------------------------------------------------------------------------------------------


 quasi-Newton-method for relaxation of ions
 charge density and potential will be updated during run
 non-spin polarized calculation
 Variant of blocked Davidson
 Davidson routine will perform the subspace rotation
 perform sub-space diagonalisation
    after iterative eigenvector-optimisation
 modified Broyden-mixing scheme, WC =      100.0
 initial mixing is a Kerker type mixing with AMIX =  0.4000 and BMIX =      1.0000
 Hartree-type preconditioning will be used
 using additional bands            5
 reciprocal scheme for non local part
 use partial core corrections
 calculate Harris-corrections to forces 
   (improved forces if not selfconsistent)
 use gradient corrections 
 use of overlap-Matrix (Vanderbilt PP)
 Gauss-broadening in eV      SIGMA  =   0.20


--------------------------------------------------------------------------------------------------------


  energy-cutoff  :      450.00
  volume of cell :      271.36
      direct lattice vectors                 reciprocal lattice vectors
     3.189856830  0.000000000  0.000000000     0.313493694  0.180995668  0.000000000
    -1.594928415  2.762497050  0.000000000     0.000000000  0.361991337  0.000000000
     0.000000000  0.000000000 30.793978868     0.000000000  0.000000000  0.032473881

  length of vectors
     3.189856830  3.189856830 30.793978868     0.361991337  0.361991337  0.032473881


 
 k-points in units of 2pi/SCALE and weight: k-density: 5.0                          
   0.00000000  0.00000000  0.00000000       0.010
   0.03134937  0.01809957  0.00000000       0.060
   0.06269874  0.03619913  0.00000000       0.060
   0.09404811  0.05429870  0.00000000       0.060
   0.12539748  0.07239827  0.00000000       0.060
   0.15674685  0.09049783  0.00000000       0.030
   0.03134937  0.05429870  0.00000000       0.060
   0.06269874  0.07239827  0.00000000       0.120
   0.09404811  0.09049783  0.00000000       0.120
   0.12539748  0.10859740  0.00000000       0.120
   0.06269874  0.10859740  0.00000000       0.060
   0.09404811  0.12669697  0.00000000       0.120
   0.12539748  0.14479653  0.00000000       0.060
   0.09404811  0.16289610  0.00000000       0.060
 
 k-points in reciprocal lattice and weights: k-density: 5.0                          
   0.00000000  0.00000000  0.00000000       0.010
   0.10000000 -0.00000000  0.00000000       0.060
   0.20000000 -0.00000000  0.00000000       0.060
   0.30000000 -0.00000000  0.00000000       0.060
   0.40000000 -0.00000000  0.00000000       0.060
   0.50000000 -0.00000000  0.00000000       0.030
   0.10000000  0.10000000  0.00000000       0.060
   0.20000000  0.10000000  0.00000000       0.120
   0.30000000  0.10000000  0.00000000       0.120
   0.40000000  0.10000000  0.00000000       0.120
   0.20000000  0.20000000  0.00000000       0.060
   0.30000000  0.20000000  0.00000000       0.120
   0.40000000  0.20000000  0.00000000       0.060
   0.30000000  0.30000000  0.00000000       0.060
 
 position of ions in fractional coordinates (direct lattice) 
   0.33333300  0.66666700  0.12046214
   0.66666700  0.33333300  0.06984045
   0.66666600  0.33333300  0.17108384
 
 position of ions in cartesian coordinates  (Angst):
  -0.00000160  1.84166562  3.70950873
   1.59493001  0.92083143  2.15066543
   1.59492682  0.92083143  5.26835203
 


--------------------------------------------------------------------------------------------------------


 k-point  1 :   0.0000 0.0000 0.0000  plane waves:    5987
 k-point  2 :   0.1000-0.0000 0.0000  plane waves:    5969
 k-point  3 :   0.2000-0.0000 0.0000  plane waves:    5925
 k-point  4 :   0.3000-0.0000 0.0000  plane waves:    5880
 k-point  5 :   0.4000-0.0000 0.0000  plane waves:    5864
 k-point  6 :   0.5000-0.0000 0.0000  plane waves:    5812
 k-point  7 :   0.1000 0.1000 0.0000  plane waves:    5947
 k-point  8 :   0.2000 0.1000 0.0000  plane waves:    5903
 k-point  9 :   0.3000 0.1000 0.0000  plane waves:    5877
 k-point 10 :   0.4000 0.1000 0.0000  plane waves:    5836
 k-point 11 :   0.2000 0.2000 0.0000  plane waves:    5887
 k-point 12 :   0.3000 0.2000 0.0000  plane waves:    5858
 k-point 13 :   0.4000 0.2000 0.0000  plane waves:    5842
 k-point 14 :   0.3000 0.3000 0.0000  plane waves:    5868

 maximum and minimum number of plane-waves per node :      2994     2869

 maximum number of plane-waves:      5987
 maximum index in each direction: 
   IXMAX=    5   IYMAX=    5   IZMAX=   53
   IXMIN=   -6   IYMIN=   -5   IZMIN=  -53


 parallel 3D FFT for wavefunctions:
    minimum data exchange during FFTs selected (reduces bandwidth)
 parallel 3D FFT for charge:
    minimum data exchange during FFTs selected (reduces bandwidth)


 total amount of memory used by VASP MPI-rank0    73662. kBytes
=======================================================================

   base      :      30000. kBytes
   nonl-proj :      12215. kBytes
   fftplans  :      10208. kBytes
   grid      :      16473. kBytes
   one-center:         31. kBytes
   wavefun   :       4735. kBytes
 
     INWAV:  cpu time    0.0000: real time    0.0003
 Broyden mixing: mesh for mixing (old mesh)
   NGX = 11   NGY = 11   NGZ =107
  (NGX  = 48   NGY  = 48   NGZ  =432)
  gives a total of  12947 points

 initial charge density was supplied:
 charge density of overlapping atoms calculated
 number of electron      18.0000000 magnetization 
 keeping initial charge density in first step


--------------------------------------------------------------------------------------------------------


 Maximum index for augmentation-charges         7169 (set IRDMAX)


--------------------------------------------------------------------------------------------------------


 First call to EWALD:  gamma=   0.274
 Maximum number of real-space cells 6x 6x 1
 Maximum number of reciprocal cells 2x 2x11

    FEWALD:  cpu time    0.0020: real time    0.0015


--------------------------------------- Iteration      1(   1)  ---------------------------------------


    POTLOK:  cpu time    0.1430: real time    0.1623
    SETDIJ:  cpu time    0.0050: real time    0.0053
     EDDAV:  cpu time    0.7009: real time    0.7048
       DOS:  cpu time    0.0000: real time    0.0007
    --------------------------------------------
      LOOP:  cpu time    0.8489: real time    0.8730

 eigenvalue-minimisations  :   392
 total energy-change (2. order) : 0.1371848E+03  (-0.5358608E+03)
 number of electron      18.0000000 magnetization 
 augmentation part       18.0000000 magnetization 

 Free energy of the ion-electron system (eV)
  ---------------------------------------------------
  alpha Z        PSCENC =        10.92610231
  Ewald energy   TEWEN  =      5354.53473861
  -Hartree energ DENC   =     -6027.92195658
  -exchange      EXHF   =         0.00000000
  -V(xc)+E(xc)   XCENC  =       -36.28686144
  PAW double counting   =       406.88651198     -329.34073203
  entropy T*S    EENTRO =        -0.05796644
  eigenvalues    EBANDS =       -12.71014824
  atomic energy  EATOM  =       771.15511399
  Solvation  Ediel_sol  =         0.00000000
  ---------------------------------------------------
  free energy    TOTEN  =       137.18480217 eV

  energy without entropy =      137.24276861  energy(sigma->0) =      137.21378539


--------------------------------------------------------------------------------------------------------




--------------------------------------- Iteration      1(   2)  ---------------------------------------


     EDDAV:  cpu time    1.0828: real time    1.0858
       DOS:  cpu time    0.0000: real time    0.0004
    --------------------------------------------
      LOOP:  cpu time    1.0828: real time    1.0862

 eigenvalue-minimisations  :   702
 total energy-change (2. order) :-0.1432056E+03  (-0.1334965E+03)
 number of electron      18.0000000 magnetization 
 augmentation part       18.0000000 magnetization 

 Free energy of the ion-electron system (eV)
  ---------------------------------------------------
  alpha Z        PSCENC =        10.92610231
  Ewald energy   TEWEN  =      5354.53473861
  -Hartree energ DENC   =     -6027.92195658
  -exchange      EXHF   =         0.00000000
  -V(xc)+E(xc)   XCENC  =       -36.28686144
  PAW double counting   =       406.88651198     -329.34073203
  entropy T*S    EENTRO =        -0.00000000
  eigenvalues    EBANDS =      -155.97370053
  atomic energy  EATOM  =       771.15511399
  Solvation  Ediel_sol  =         0.00000000
  ---------------------------------------------------
  free energy    TOTEN  =        -6.02078369 eV

  energy without entropy =       -6.02078369  energy(sigma->0) =       -6.02078369


--------------------------------------------------------------------------------------------------------




--------------------------------------- Iteration      1(   3)  ---------------------------------------


     EDDAV:  cpu time    0.8509: real time    0.8548
       DOS:  cpu time    0.0010: real time    0.0004
    --------------------------------------------
      LOOP:  cpu time    0.8519: real time    0.8552

 eigenvalue-minimisations  :   518
 total energy-change (2. order) :-0.1702473E+02  (-0.1686414E+02)
 number of electron      18.0000000 magnetization 
 augmentation part       18.0000000 magnetization 

 Free energy of the ion-electron system (eV)
  ---------------------------------------------------
  alpha Z        PSCENC =        10.92610231
  Ewald energy   TEWEN  =      5354.53473861
  -Hartree energ DENC   =     -6027.92195658
  -exchange      EXHF   =         0.00000000
  -V(xc)+E(xc)   XCENC  =       -36.28686144
  PAW double counting   =       406.88651198     -329.34073203
  entropy T*S    EENTRO =        -0.00000000
  eigenvalues    EBANDS =      -172.99842872
  atomic energy  EATOM  =       771.15511399
  Solvation  Ediel_sol  =         0.00000000
  ---------------------------------------------------
  free energy    TOTEN  =       -23.04551188 eV

  energy without entropy =      -23.04551188  energy(sigma->0) =      -23.04551188


--------------------------------------------------------------------------------------------------------




--------------------------------------- Iteration      1(   4)  ---------------------------------------


     EDDAV:  cpu time    0.8659: real time    0.8658
       DOS:  cpu time    0.0000: real time    0.0004
    --------------------------------------------
      LOOP:  cpu time    0.8659: real time    0.8662

 eigenvalue-minimisations  :   530
 total energy-change (2. order) :-0.3466054E+00  (-0.3446859E+00)
 number of electron      18.0000000 magnetization 
 augmentation part       18.0000000 magnetization 

 Free energy of the ion-electron system (eV)
  ---------------------------------------------------
  alpha Z        PSCENC =        10.92610231
  Ewald energy   TEWEN  =      5354.53473861
  -Hartree energ DENC   =     -6027.92195658
  -exchange      EXHF   =         0.00000000
  -V(xc)+E(xc)   XCENC  =       -36.28686144
  PAW double counting   =       406.88651198     -329.34073203
  entropy T*S    EENTRO =        -0.00000000
  eigenvalues    EBANDS =      -173.34503413
  atomic energy  EATOM  =       771.15511399
  Solvation  Ediel_sol  =         0.00000000
  ---------------------------------------------------
  free energy    TOTEN  =       -23.39211729 eV

  energy without entropy =      -23.39211729  energy(sigma->0) =      -23.39211729


--------------------------------------------------------------------------------------------------------




--------------------------------------- Iteration      1(   5)  ---------------------------------------


     EDDAV:  cpu time    0.8609: real time    0.8622
       DOS:  cpu time    0.0000: real time    0.0004
    CHARGE:  cpu time    0.0730: real time    0.0722
    MIXING:  cpu time    0.0040: real time    0.0039
    --------------------------------------------
      LOOP:  cpu time    0.9379: real time    0.9387

 eigenvalue-minimisations  :   526
 total energy-change (2. order) :-0.8610846E-02  (-0.8606569E-02)
 number of electron      18.0000005 magnetization 
 augmentation part       -0.9434585 magnetization 

 Broyden mixing:
  rms(total) = 0.68734E+00    rms(broyden)= 0.68733E+00
  rms(prec ) = 0.73108E+00
  weight for this iteration     100.00

 Free energy of the ion-electron system (eV)
  ---------------------------------------------------
  alpha Z        PSCENC =        10.92610231
  Ewald energy   TEWEN  =      5354.53473861
  -Hartree energ DENC   =     -6027.92195658
  -exchange      EXHF   =         0.00000000
  -V(xc)+E(xc)   XCENC  =       -36.28686144
  PAW double counting   =       406.88651198     -329.34073203
  entropy T*S    EENTRO =        -0.00000000
  eigenvalues    EBANDS =      -173.35364498
  atomic energy  EATOM  =       771.15511399
  Solvation  Ediel_sol  =         0.00000000
  ---------------------------------------------------
  free energy    TOTEN  =       -23.40072813 eV

  energy without entropy =      -23.40072813  energy(sigma->0) =      -23.40072813


--------------------------------------------------------------------------------------------------------




--------------------------------------- Iteration      1(   6)  ---------------------------------------


    POTLOK:  cpu time    0.1400: real time    0.1400
    SETDIJ:  cpu time    0.0050: real time    0.0052
     EDDAV:  cpu time    0.7949: real time    0.7955
       DOS:  cpu time    0.0010: real time    0.0004
    CHARGE:  cpu time    0.0710: real time    0.0716
    MIXING:  cpu time    0.0040: real time    0.0038
    --------------------------------------------
      LOOP:  cpu time    1.0158: real time    1.0165

 eigenvalue-minimisations  :   472
 total energy-change (2. order) : 0.1180640E+01  (-0.5217510E+00)
 number of electron      18.0000005 magnetization 
 augmentation part       -0.3677998 magnetization 

 Broyden mixing:
  rms(total) = 0.27825E+00    rms(broyden)= 0.27825E+00
  rms(prec ) = 0.31746E+00
  weight for this iteration     100.00

 eigenvalues of (default mixing * dielectric matrix)
  average eigenvalue GAMMA=   0.7990
  0.7990

 Free energy of the ion-electron system (eV)
  ---------------------------------------------------
  alpha Z        PSCENC =        10.92610231
  Ewald energy   TEWEN  =      5354.53473861
  -Hartree energ DENC   =     -6026.31097174
  -exchange      EXHF   =         0.00000000
  -V(xc)+E(xc)   XCENC  =       -35.40038060
  PAW double counting   =       424.48791635     -347.83836695
  entropy T*S    EENTRO =        -0.00000007
  eigenvalues    EBANDS =      -173.77424043
  atomic energy  EATOM  =       771.15511399
  Solvation  Ediel_sol  =         0.00000000
  ---------------------------------------------------
  free energy    TOTEN  =       -22.22008853 eV

  energy without entropy =      -22.22008846  energy(sigma->0) =      -22.22008850


--------------------------------------------------------------------------------------------------------




--------------------------------------- Iteration      1(   7)  ---------------------------------------


    POTLOK:  cpu time    0.1310: real time    0.1335
    SETDIJ:  cpu time    0.0050: real time    0.0052
     EDDAV:  cpu time    0.7909: real time    0.7912
       DOS:  cpu time    0.0000: real time    0.0004
    CHARGE:  cpu time    0.0720: real time    0.0717
    MIXING:  cpu time    0.0040: real time    0.0038
    --------------------------------------------
      LOOP:  cpu time    1.0028: real time    1.0058

 eigenvalue-minimisations  :   470
 total energy-change (2. order) : 0.3457057E+00  (-0.1422964E+00)
 number of electron      18.0000005 magnetization 
 augmentation part       -0.6104343 magnetization 

 Broyden mixing:
  rms(total) = 0.16892E+00    rms(broyden)= 0.16892E+00
  rms(prec ) = 0.17642E+00
  weight for this iteration     100.00

 eigenvalues of (default mixing * dielectric matrix)
  average eigenvalue GAMMA=   1.3765
  2.1284  0.6246

 Free energy of the ion-electron system (eV)
  ---------------------------------------------------
  alpha Z        PSCENC =        10.92610231
  Ewald energy   TEWEN  =      5354.53473861
  -Hartree energ DENC   =     -6032.17246240
  -exchange      EXHF   =         0.00000000
  -V(xc)+E(xc)   XCENC  =       -35.57381156
  PAW double counting   =       442.20316696     -365.78153623
  entropy T*S    EENTRO =        -0.00000000
  eigenvalues    EBANDS =      -167.16569448
  atomic energy  EATOM  =       771.15511399
  Solvation  Ediel_sol  =         0.00000000
  ---------------------------------------------------
  free energy    TOTEN  =       -21.87438279 eV

  energy without entropy =      -21.87438279  energy(sigma->0) =      -21.87438279


--------------------------------------------------------------------------------------------------------




--------------------------------------- Iteration      1(   8)  ---------------------------------------


    POTLOK:  cpu time    0.1320: real time    0.1329
    SETDIJ:  cpu time    0.0050: real time    0.0052
     EDDAV:  cpu time    0.8499: real time    0.8503
       DOS:  cpu time    0.0010: real time    0.0004
    CHARGE:  cpu time    0.0710: real time    0.0716
    MIXING:  cpu time    0.0040: real time    0.0039
    --------------------------------------------
      LOOP:  cpu time    1.0628: real time    1.0643

 eigenvalue-minimisations  :   518
 total energy-change (2. order) : 0.7346918E-01  (-0.2072435E-01)
 number of electron      18.0000005 magnetization 
 augmentation part       -0.5479424 magnetization 

 Broyden mixing:
  rms(total) = 0.31207E-01    rms(broyden)= 0.31206E-01
  rms(prec ) = 0.33074E-01
  weight for this iteration     100.00

 eigenvalues of (default mixing * dielectric matrix)
  average eigenvalue GAMMA=   1.3426
  0.6178  1.2700  2.1399

 Free energy of the ion-electron system (eV)
  ---------------------------------------------------
  alpha Z        PSCENC =        10.92610231
  Ewald energy   TEWEN  =      5354.53473861
  -Hartree energ DENC   =     -6035.14214820
  -exchange      EXHF   =         0.00000000
  -V(xc)+E(xc)   XCENC  =       -35.27869735
  PAW double counting   =       465.84517127     -389.95656096
  entropy T*S    EENTRO =        -0.00000000
  eigenvalues    EBANDS =      -163.88463330
  atomic energy  EATOM  =       771.15511399
  Solvation  Ediel_sol  =         0.00000000
  ---------------------------------------------------
  free energy    TOTEN  =       -21.80091362 eV

  energy without entropy =      -21.80091361  energy(sigma->0) =      -21.80091362


--------------------------------------------------------------------------------------------------------




--------------------------------------- Iteration      1(   9)  ---------------------------------------


    POTLOK:  cpu time    0.1320: real time    0.1344
    SETDIJ:  cpu time    0.0060: real time    0.0052
     EDDAV:  cpu time    0.8719: real time    0.8720
       DOS:  cpu time    0.0000: real time    0.0004
    CHARGE:  cpu time    0.0720: real time    0.0717
    MIXING:  cpu time    0.0040: real time    0.0045
    --------------------------------------------
      LOOP:  cpu time    1.0858: real time    1.0882

 eigenvalue-minimisations  :   536
 total energy-change (2. order) : 0.2376437E-02  (-0.1540282E-02)
 number of electron      18.0000005 magnetization 
 augmentation part       -0.5475409 magnetization 

 Broyden mixing:
  rms(total) = 0.16248E-01    rms(broyden)= 0.16248E-01
  rms(prec ) = 0.17779E-01
  weight for this iteration     100.00

 eigenvalues of (default mixing * dielectric matrix)
  average eigenvalue GAMMA=   1.5056
  2.5555  1.9090  0.6184  0.9396

 Free energy of the ion-electron system (eV)
  ---------------------------------------------------
  alpha Z        PSCENC =        10.92610231
  Ewald energy   TEWEN  =      5354.53473861
  -Hartree energ DENC   =     -6036.55180798
  -exchange      EXHF   =         0.00000000
  -V(xc)+E(xc)   XCENC  =       -35.22907041
  PAW double counting   =       470.96876557     -395.15799876
  entropy T*S    EENTRO =        -0.00000000
  eigenvalues    EBANDS =      -162.44438051
  atomic energy  EATOM  =       771.15511399
  Solvation  Ediel_sol  =         0.00000000
  ---------------------------------------------------
  free energy    TOTEN  =       -21.79853718 eV

  energy without entropy =      -21.79853718  energy(sigma->0) =      -21.79853718


--------------------------------------------------------------------------------------------------------




--------------------------------------- Iteration      1(  10)  ---------------------------------------


    POTLOK:  cpu time    0.1320: real time    0.1334
    SETDIJ:  cpu time    0.0060: real time    0.0052
     EDDAV:  cpu time    0.8339: real time    0.8345
       DOS:  cpu time    0.0010: real time    0.0004
    CHARGE:  cpu time    0.0720: real time    0.0719
    MIXING:  cpu time    0.0040: real time    0.0041
    --------------------------------------------
      LOOP:  cpu time    1.0488: real time    1.0495

 eigenvalue-minimisations  :   506
 total energy-change (2. order) : 0.1688167E-02  (-0.3077069E-03)
 number of electron      18.0000005 magnetization 
 augmentation part       -0.5517662 magnetization 

 Broyden mixing:
  rms(total) = 0.47247E-02    rms(broyden)= 0.47245E-02
  rms(prec ) = 0.61621E-02
  weight for this iteration     100.00

 eigenvalues of (default mixing * dielectric matrix)
  average eigenvalue GAMMA=   1.3788
  2.4047  0.6197  1.6390  1.0193  1.2114

 Free energy of the ion-electron system (eV)
  ---------------------------------------------------
  alpha Z        PSCENC =        10.92610231
  Ewald energy   TEWEN  =      5354.53473861
  -Hartree energ DENC   =     -6038.15129084
  -exchange      EXHF   =         0.00000000
  -V(xc)+E(xc)   XCENC  =       -35.19479624
  PAW double counting   =       474.32399150     -398.54913567
  entropy T*S    EENTRO =        -0.00000000
  eigenvalues    EBANDS =      -160.84157267
  atomic energy  EATOM  =       771.15511399
  Solvation  Ediel_sol  =         0.00000000
  ---------------------------------------------------
  free energy    TOTEN  =       -21.79684901 eV

  energy without entropy =      -21.79684901  energy(sigma->0) =      -21.79684901


--------------------------------------------------------------------------------------------------------




--------------------------------------- Iteration      1(  11)  ---------------------------------------


    POTLOK:  cpu time    0.1320: real time    0.1345
    SETDIJ:  cpu time    0.0060: real time    0.0052
     EDDAV:  cpu time    0.8699: real time    0.8710
       DOS:  cpu time    0.0010: real time    0.0004
    CHARGE:  cpu time    0.0720: real time    0.0720
    MIXING:  cpu time    0.0040: real time    0.0042
    --------------------------------------------
      LOOP:  cpu time    1.0848: real time    1.0872

 eigenvalue-minimisations  :   536
 total energy-change (2. order) : 0.1089259E-03  (-0.4659276E-04)
 number of electron      18.0000005 magnetization 
 augmentation part       -0.5496206 magnetization 

 Broyden mixing:
  rms(total) = 0.27741E-02    rms(broyden)= 0.27741E-02
  rms(prec ) = 0.43570E-02
  weight for this iteration     100.00

 eigenvalues of (default mixing * dielectric matrix)
  average eigenvalue GAMMA=   1.6501
  2.8087  2.8087  0.6194  0.9199  1.3719  1.3719

 Free energy of the ion-electron system (eV)
  ---------------------------------------------------
  alpha Z        PSCENC =        10.92610231
  Ewald energy   TEWEN  =      5354.53473861
  -Hartree energ DENC   =     -6038.53940049
  -exchange      EXHF   =         0.00000000
  -V(xc)+E(xc)   XCENC  =       -35.19127077
  PAW double counting   =       473.80886290     -398.02601127
  entropy T*S    EENTRO =        -0.00000000
  eigenvalues    EBANDS =      -160.46487536
  atomic energy  EATOM  =       771.15511399
  Solvation  Ediel_sol  =         0.00000000
  ---------------------------------------------------
  free energy    TOTEN  =       -21.79674008 eV

  energy without entropy =      -21.79674008  energy(sigma->0) =      -21.79674008


--------------------------------------------------------------------------------------------------------




--------------------------------------- Iteration      1(  12)  ---------------------------------------


    POTLOK:  cpu time    0.1320: real time    0.1344
    SETDIJ:  cpu time    0.0060: real time    0.0053
     EDDAV:  cpu time    0.8199: real time    0.8192
       DOS:  cpu time    0.0000: real time    0.0004
    CHARGE:  cpu time    0.0730: real time    0.0722
    MIXING:  cpu time    0.0040: real time    0.0043
    --------------------------------------------
      LOOP:  cpu time    1.0348: real time    1.0358

 eigenvalue-minimisations  :   494
 total energy-change (2. order) : 0.2754903E-03  (-0.5896899E-04)
 number of electron      18.0000005 magnetization 
 augmentation part       -0.5509911 magnetization 

 Broyden mixing:
  rms(total) = 0.26385E-02    rms(broyden)= 0.26385E-02
  rms(prec ) = 0.30650E-02
  weight for this iteration     100.00

 eigenvalues of (default mixing * dielectric matrix)
  average eigenvalue GAMMA=   1.5927
  3.0403  2.3718  1.5890  1.5890  0.6197  0.9697  0.9697

 Free energy of the ion-electron system (eV)
  ---------------------------------------------------
  alpha Z        PSCENC =        10.92610231
  Ewald energy   TEWEN  =      5354.53473861
  -Hartree energ DENC   =     -6040.19824992
  -exchange      EXHF   =         0.00000000
  -V(xc)+E(xc)   XCENC  =       -35.17732194
  PAW double counting   =       473.56015053     -397.76554170
  entropy T*S    EENTRO =        -0.00000000
  eigenvalues    EBANDS =      -158.83145648
  atomic energy  EATOM  =       771.15511399
  Solvation  Ediel_sol  =         0.00000000
  ---------------------------------------------------
  free energy    TOTEN  =       -21.79646459 eV

  energy without entropy =      -21.79646459  energy(sigma->0) =      -21.79646459


--------------------------------------------------------------------------------------------------------




--------------------------------------- Iteration      1(  13)  ---------------------------------------


    POTLOK:  cpu time    0.1330: real time    0.1368
    SETDIJ:  cpu time    0.0050: real time    0.0043
     EDDAV:  cpu time    0.7389: real time    0.7397
       DOS:  cpu time    0.0000: real time    0.0004
    CHARGE:  cpu time    0.0730: real time    0.0722
    MIXING:  cpu time    0.0050: real time    0.0044
    --------------------------------------------
      LOOP:  cpu time    0.9549: real time    0.9578

 eigenvalue-minimisations  :   428
 total energy-change (2. order) :-0.2147237E-03  (-0.2126136E-04)
 number of electron      18.0000005 magnetization 
 augmentation part       -0.5482521 magnetization 

 Broyden mixing:
  rms(total) = 0.24566E-02    rms(broyden)= 0.24566E-02
  rms(prec ) = 0.27820E-02
  weight for this iteration     100.00

 eigenvalues of (default mixing * dielectric matrix)
  average eigenvalue GAMMA=   1.9543
  5.0433  2.8963  2.4315  0.6197  1.3869  1.3869  0.9778  0.8916

 Free energy of the ion-electron system (eV)
  ---------------------------------------------------
  alpha Z        PSCENC =        10.92610231
  Ewald energy   TEWEN  =      5354.53473861
  -Hartree energ DENC   =     -6040.57559849
  -exchange      EXHF   =         0.00000000
  -V(xc)+E(xc)   XCENC  =       -35.17097961
  PAW double counting   =       473.57941562     -397.79194911
  entropy T*S    EENTRO =        -0.00000000
  eigenvalues    EBANDS =      -158.45352264
  atomic energy  EATOM  =       771.15511399
  Solvation  Ediel_sol  =         0.00000000
  ---------------------------------------------------
  free energy    TOTEN  =       -21.79667932 eV

  energy without entropy =      -21.79667932  energy(sigma->0) =      -21.79667932


--------------------------------------------------------------------------------------------------------




--------------------------------------- Iteration      1(  14)  ---------------------------------------


    POTLOK:  cpu time    0.1330: real time    0.1348
    SETDIJ:  cpu time    0.0050: real time    0.0043
     EDDAV:  cpu time    0.7319: real time    0.7317
       DOS:  cpu time    0.0010: real time    0.0004
    CHARGE:  cpu time    0.0710: real time    0.0723
    MIXING:  cpu time    0.0050: real time    0.0045
    --------------------------------------------
      LOOP:  cpu time    0.9469: real time    0.9479

 eigenvalue-minimisations  :   422
 total energy-change (2. order) :-0.1822103E-03  (-0.5317682E-05)
 number of electron      18.0000005 magnetization 
 augmentation part       -0.5496493 magnetization 

 Broyden mixing:
  rms(total) = 0.70328E-03    rms(broyden)= 0.70327E-03
  rms(prec ) = 0.81179E-03
  weight for this iteration     100.00

 eigenvalues of (default mixing * dielectric matrix)
  average eigenvalue GAMMA=   1.9130
  5.1198  2.6966  2.0131  2.0131  1.7555  0.6197  0.9072  1.0459  1.0459

 Free energy of the ion-electron system (eV)
  ---------------------------------------------------
  alpha Z        PSCENC =        10.92610231
  Ewald energy   TEWEN  =      5354.53473861
  -Hartree energ DENC   =     -6041.07340056
  -exchange      EXHF   =         0.00000000
  -V(xc)+E(xc)   XCENC  =       -35.17170183
  PAW double counting   =       473.31517171     -397.52393420
  entropy T*S    EENTRO =        -0.00000000
  eigenvalues    EBANDS =      -157.95895156
  atomic energy  EATOM  =       771.15511399
  Solvation  Ediel_sol  =         0.00000000
  ---------------------------------------------------
  free energy    TOTEN  =       -21.79686153 eV

  energy without entropy =      -21.79686153  energy(sigma->0) =      -21.79686153


--------------------------------------------------------------------------------------------------------




--------------------------------------- Iteration      1(  15)  ---------------------------------------


    POTLOK:  cpu time    0.1360: real time    0.1371
    SETDIJ:  cpu time    0.0040: real time    0.0043
     EDDAV:  cpu time    0.7899: real time    0.7897
       DOS:  cpu time    0.0000: real time    0.0004
    CHARGE:  cpu time    0.0720: real time    0.0722
    MIXING:  cpu time    0.0050: real time    0.0046
    --------------------------------------------
      LOOP:  cpu time    1.0068: real time    1.0083

 eigenvalue-minimisations  :   470
 total energy-change (2. order) :-0.8340641E-04  (-0.8910860E-06)
 number of electron      18.0000005 magnetization 
 augmentation part       -0.5495957 magnetization 

 Broyden mixing:
  rms(total) = 0.30481E-03    rms(broyden)= 0.30481E-03
  rms(prec ) = 0.40311E-03
  weight for this iteration     100.00

 eigenvalues of (default mixing * dielectric matrix)
  average eigenvalue GAMMA=   2.1282
  6.6393  3.5373  2.5011  2.2958  1.5306  0.6197  1.2769  0.9189  0.9812  0.9812

 Free energy of the ion-electron system (eV)
  ---------------------------------------------------
  alpha Z        PSCENC =        10.92610231
  Ewald energy   TEWEN  =      5354.53473861
  -Hartree energ DENC   =     -6041.21701443
  -exchange      EXHF   =         0.00000000
  -V(xc)+E(xc)   XCENC  =       -35.17087582
  PAW double counting   =       473.39313544     -397.60182980
  entropy T*S    EENTRO =        -0.00000000
  eigenvalues    EBANDS =      -157.81631524
  atomic energy  EATOM  =       771.15511399
  Solvation  Ediel_sol  =         0.00000000
  ---------------------------------------------------
  free energy    TOTEN  =       -21.79694493 eV

  energy without entropy =      -21.79694493  energy(sigma->0) =      -21.79694493


--------------------------------------------------------------------------------------------------------




--------------------------------------- Iteration      1(  16)  ---------------------------------------


    POTLOK:  cpu time    0.1360: real time    0.1380
    SETDIJ:  cpu time    0.0050: real time    0.0043
     EDDAV:  cpu time    0.7179: real time    0.7181
       DOS:  cpu time    0.0010: real time    0.0004
    CHARGE:  cpu time    0.0720: real time    0.0727
    MIXING:  cpu time    0.0050: real time    0.0048
    --------------------------------------------
      LOOP:  cpu time    0.9369: real time    0.9384

 eigenvalue-minimisations  :   410
 total energy-change (2. order) :-0.8150142E-04  (-0.4990234E-06)
 number of electron      18.0000005 magnetization 
 augmentation part       -0.5498050 magnetization 

 Broyden mixing:
  rms(total) = 0.24397E-03    rms(broyden)= 0.24397E-03
  rms(prec ) = 0.27088E-03
  weight for this iteration     100.00

 eigenvalues of (default mixing * dielectric matrix)
  average eigenvalue GAMMA=   2.1791
  6.9138  3.6927  2.7483  2.4258  1.7685  1.7685  0.6197  0.9108  1.0307  1.0457
  1.0457

 Free energy of the ion-electron system (eV)
  ---------------------------------------------------
  alpha Z        PSCENC =        10.92610231
  Ewald energy   TEWEN  =      5354.53473861
  -Hartree energ DENC   =     -6041.33029820
  -exchange      EXHF   =         0.00000000
  -V(xc)+E(xc)   XCENC  =       -35.17127152
  PAW double counting   =       473.42605008     -397.63513970
  entropy T*S    EENTRO =        -0.00000000
  eigenvalues    EBANDS =      -157.70232201
  atomic energy  EATOM  =       771.15511399
  Solvation  Ediel_sol  =         0.00000000
  ---------------------------------------------------
  free energy    TOTEN  =       -21.79702644 eV

  energy without entropy =      -21.79702644  energy(sigma->0) =      -21.79702644


--------------------------------------------------------------------------------------------------------




--------------------------------------- Iteration      1(  17)  ---------------------------------------


    POTLOK:  cpu time    0.1370: real time    0.1372
    SETDIJ:  cpu time    0.0050: real time    0.0043
     EDDAV:  cpu time    0.7029: real time    0.7037
       DOS:  cpu time    0.0010: real time    0.0004
    CHARGE:  cpu time    0.0720: real time    0.0724
    MIXING:  cpu time    0.0050: real time    0.0049
    --------------------------------------------
      LOOP:  cpu time    0.9229: real time    0.9228

 eigenvalue-minimisations  :   398
 total energy-change (2. order) :-0.3187813E-04  (-0.1298458E-06)
 number of electron      18.0000005 magnetization 
 augmentation part       -0.5496738 magnetization 

 Broyden mixing:
  rms(total) = 0.97152E-04    rms(broyden)= 0.97151E-04
  rms(prec ) = 0.11689E-03
  weight for this iteration     100.00

 eigenvalues of (default mixing * dielectric matrix)
  average eigenvalue GAMMA=   2.2409
  7.4992  4.3402  3.0910  2.5144  2.0181  1.6218  0.6197  1.2949  1.0360  1.0360
  0.9287  0.8908

 Free energy of the ion-electron system (eV)
  ---------------------------------------------------
  alpha Z        PSCENC =        10.92610231
  Ewald energy   TEWEN  =      5354.53473861
  -Hartree energ DENC   =     -6041.36469764
  -exchange      EXHF   =         0.00000000
  -V(xc)+E(xc)   XCENC  =       -35.17107829
  PAW double counting   =       473.40226268     -397.61102664
  entropy T*S    EENTRO =        -0.00000000
  eigenvalues    EBANDS =      -157.66847333
  atomic energy  EATOM  =       771.15511399
  Solvation  Ediel_sol  =         0.00000000
  ---------------------------------------------------
  free energy    TOTEN  =       -21.79705831 eV

  energy without entropy =      -21.79705831  energy(sigma->0) =      -21.79705831


--------------------------------------------------------------------------------------------------------




--------------------------------------- Iteration      1(  18)  ---------------------------------------


    POTLOK:  cpu time    0.1310: real time    0.1331
    SETDIJ:  cpu time    0.0050: real time    0.0043
     EDDAV:  cpu time    0.6869: real time    0.6863
       DOS:  cpu time    0.0000: real time    0.0004
    CHARGE:  cpu time    0.0730: real time    0.0724
    MIXING:  cpu time    0.0050: real time    0.0050
    --------------------------------------------
      LOOP:  cpu time    0.9009: real time    0.9015

 eigenvalue-minimisations  :   384
 total energy-change (2. order) :-0.8642991E-05  (-0.5695841E-07)
 number of electron      18.0000005 magnetization 
 augmentation part       -0.5496975 magnetization 

 Broyden mixing:
  rms(total) = 0.90212E-04    rms(broyden)= 0.90211E-04
  rms(prec ) = 0.98342E-04
  weight for this iteration     100.00

 eigenvalues of (default mixing * dielectric matrix)
  average eigenvalue GAMMA=   2.2781
  7.6475  5.1541  2.9087  2.7393  1.9695  1.9695  1.5749  0.6197  1.1007  1.0365
  1.0365  0.9204  0.9380

 Free energy of the ion-electron system (eV)
  ---------------------------------------------------
  alpha Z        PSCENC =        10.92610231
  Ewald energy   TEWEN  =      5354.53473861
  -Hartree energ DENC   =     -6041.37735271
  -exchange      EXHF   =         0.00000000
  -V(xc)+E(xc)   XCENC  =       -35.17114396
  PAW double counting   =       473.39494882     -397.60362636
  entropy T*S    EENTRO =        -0.00000000
  eigenvalues    EBANDS =      -157.65584766
  atomic energy  EATOM  =       771.15511399
  Solvation  Ediel_sol  =         0.00000000
  ---------------------------------------------------
  free energy    TOTEN  =       -21.79706696 eV

  energy without entropy =      -21.79706696  energy(sigma->0) =      -21.79706696


--------------------------------------------------------------------------------------------------------




--------------------------------------- Iteration      1(  19)  ---------------------------------------


    POTLOK:  cpu time    0.1320: real time    0.1328
    SETDIJ:  cpu time    0.0050: real time    0.0043
     EDDAV:  cpu time    0.6649: real time    0.6651
       DOS:  cpu time    0.0000: real time    0.0004
    CHARGE:  cpu time    0.0720: real time    0.0724
    MIXING:  cpu time    0.0060: real time    0.0052
    --------------------------------------------
      LOOP:  cpu time    0.8799: real time    0.8801

 eigenvalue-minimisations  :   366
 total energy-change (2. order) :-0.5812147E-05  (-0.2625818E-07)
 number of electron      18.0000005 magnetization 
 augmentation part       -0.5497499 magnetization 

 Broyden mixing:
  rms(total) = 0.39809E-04    rms(broyden)= 0.39808E-04
  rms(prec ) = 0.46026E-04
  weight for this iteration     100.00

 eigenvalues of (default mixing * dielectric matrix)
  average eigenvalue GAMMA=   2.3202
  7.7467  5.4949  2.9089  2.7530  2.7530  1.7943  1.7943  1.6658  0.6197  1.0564
  1.0133  1.0133  0.9343  0.9343

 Free energy of the ion-electron system (eV)
  ---------------------------------------------------
  alpha Z        PSCENC =        10.92610231
  Ewald energy   TEWEN  =      5354.53473861
  -Hartree energ DENC   =     -6041.37821438
  -exchange      EXHF   =         0.00000000
  -V(xc)+E(xc)   XCENC  =       -35.17126999
  PAW double counting   =       473.39594152     -397.60463525
  entropy T*S    EENTRO =        -0.00000000
  eigenvalues    EBANDS =      -157.65484958
  atomic energy  EATOM  =       771.15511399
  Solvation  Ediel_sol  =         0.00000000
  ---------------------------------------------------
  free energy    TOTEN  =       -21.79707277 eV

  energy without entropy =      -21.79707277  energy(sigma->0) =      -21.79707277


--------------------------------------------------------------------------------------------------------




--------------------------------------- Iteration      1(  20)  ---------------------------------------


    POTLOK:  cpu time    0.1360: real time    0.1379
    SETDIJ:  cpu time    0.0040: real time    0.0043
     EDDAV:  cpu time    0.6469: real time    0.6469
       DOS:  cpu time    0.0000: real time    0.0004
    CHARGE:  cpu time    0.0730: real time    0.0724
    MIXING:  cpu time    0.0050: real time    0.0053
    --------------------------------------------
      LOOP:  cpu time    0.8649: real time    0.8672

 eigenvalue-minimisations  :   350
 total energy-change (2. order) :-0.4528339E-05  (-0.2735847E-07)
 number of electron      18.0000005 magnetization 
 augmentation part       -0.5497353 magnetization 

 Broyden mixing:
  rms(total) = 0.33087E-04    rms(broyden)= 0.33087E-04
  rms(prec ) = 0.35882E-04
  weight for this iteration     100.00

 eigenvalues of (default mixing * dielectric matrix)
  average eigenvalue GAMMA=   2.3579
  7.7932  5.8327  3.7706  2.9860  2.4367  2.4367  1.7005  1.7005  0.6197  1.1324
  1.1324  0.9789  0.9789  0.9123  0.9568

 Free energy of the ion-electron system (eV)
  ---------------------------------------------------
  alpha Z        PSCENC =        10.92610231
  Ewald energy   TEWEN  =      5354.53473861
  -Hartree energ DENC   =     -6041.38342353
  -exchange      EXHF   =         0.00000000
  -V(xc)+E(xc)   XCENC  =       -35.17121116
  PAW double counting   =       473.40150684     -397.61034334
  entropy T*S    EENTRO =        -0.00000000
  eigenvalues    EBANDS =      -157.64956102
  atomic energy  EATOM  =       771.15511399
  Solvation  Ediel_sol  =         0.00000000
  ---------------------------------------------------
  free energy    TOTEN  =       -21.79707730 eV

  energy without entropy =      -21.79707730  energy(sigma->0) =      -21.79707730


--------------------------------------------------------------------------------------------------------




--------------------------------------- Iteration      1(  21)  ---------------------------------------


    POTLOK:  cpu time    0.1350: real time    0.1356
    SETDIJ:  cpu time    0.0050: real time    0.0042
     EDDAV:  cpu time    0.6629: real time    0.6627
       DOS:  cpu time    0.0000: real time    0.0004
    CHARGE:  cpu time    0.0720: real time    0.0726
    MIXING:  cpu time    0.0060: real time    0.0054
    --------------------------------------------
      LOOP:  cpu time    0.8809: real time    0.8809

 eigenvalue-minimisations  :   364
 total energy-change (2. order) :-0.1313142E-05  (-0.6241662E-08)
 number of electron      18.0000005 magnetization 
 augmentation part       -0.5497349 magnetization 

 Broyden mixing:
  rms(total) = 0.20792E-04    rms(broyden)= 0.20792E-04
  rms(prec ) = 0.21959E-04
  weight for this iteration     100.00

 eigenvalues of (default mixing * dielectric matrix)
  average eigenvalue GAMMA=   2.3411
  7.8220  6.2656  3.9216  2.9660  2.3776  2.3776  1.8040  1.8040  1.5762  0.6197
  1.1246  1.0154  1.0154  0.9070  0.9307  0.9307

 Free energy of the ion-electron system (eV)
  ---------------------------------------------------
  alpha Z        PSCENC =        10.92610231
  Ewald energy   TEWEN  =      5354.53473861
  -Hartree energ DENC   =     -6041.38908149
  -exchange      EXHF   =         0.00000000
  -V(xc)+E(xc)   XCENC  =       -35.17120276
  PAW double counting   =       473.39945522     -397.60823992
  entropy T*S    EENTRO =        -0.00000000
  eigenvalues    EBANDS =      -157.64396457
  atomic energy  EATOM  =       771.15511399
  Solvation  Ediel_sol  =         0.00000000
  ---------------------------------------------------
  free energy    TOTEN  =       -21.79707861 eV

  energy without entropy =      -21.79707861  energy(sigma->0) =      -21.79707861


--------------------------------------------------------------------------------------------------------




--------------------------------------- Iteration      1(  22)  ---------------------------------------


    POTLOK:  cpu time    0.1350: real time    0.1361
    SETDIJ:  cpu time    0.0040: real time    0.0042
     EDDAV:  cpu time    0.6789: real time    0.6791
       DOS:  cpu time    0.0010: real time    0.0004
    --------------------------------------------
      LOOP:  cpu time    0.8189: real time    0.8199

 eigenvalue-minimisations  :   376
 total energy-change (2. order) :-0.3704158E-06  (-0.1239634E-08)
 number of electron      18.0000005 magnetization 
 augmentation part       -0.5497349 magnetization 

 Free energy of the ion-electron system (eV)
  ---------------------------------------------------
  alpha Z        PSCENC =        10.92610231
  Ewald energy   TEWEN  =      5354.53473861
  -Hartree energ DENC   =     -6041.38985653
  -exchange      EXHF   =         0.00000000
  -V(xc)+E(xc)   XCENC  =       -35.17120548
  PAW double counting   =       473.39880309     -397.60758366
  entropy T*S    EENTRO =        -0.00000000
  eigenvalues    EBANDS =      -157.64319132
  atomic energy  EATOM  =       771.15511399
  Solvation  Ediel_sol  =         0.00000000
  ---------------------------------------------------
  free energy    TOTEN  =       -21.79707898 eV

  energy without entropy =      -21.79707898  energy(sigma->0) =      -21.79707898


--------------------------------------------------------------------------------------------------------




 average (electrostatic) potential at core
  the test charge radii are     1.2296  0.9698
  (the norm of the test charge is              1.0000)
       1 -47.1895       2 -95.0371       3 -95.0371
 
 
 
 E-fermi :  -2.9211     XC(G=0):  -2.4879     alpha+bet : -2.3288


 k-point     1 :       0.0000    0.0000    0.0000
  band No.  band energies     occupation 
      1     -17.8063      2.00000
      2     -16.5778      2.00000
      3      -9.3240      2.00000
      4      -6.3792      2.00000
      5      -6.3792      2.00000
      6      -5.4680      2.00000
      7      -5.2638      2.00000
      8      -5.2638      2.00000
      9      -3.7424      2.00000
     10      -0.9857      0.00000
     11      -0.9856      0.00000
     12      -0.7476      0.00000
     13      -0.7475      0.00000
     14       1.6682      0.00000

 k-point     2 :       0.1000   -0.0000    0.0000
  band No.  band energies     occupation 
      1     -17.6676      2.00000
      2     -16.5123      2.00000
      3      -9.1632      2.00000
      4      -6.6896      2.00000
      5      -6.2264      2.00000
      6      -6.1075      2.00000
      7      -5.4897      2.00000
      8      -4.8519      2.00000
      9      -3.8255      2.00000
     10      -1.1606      0.00000
     11      -1.1122      0.00000
     12      -0.9081      0.00000
     13      -0.7433      0.00000
     14       1.9204      0.00000

 k-point     3 :       0.2000   -0.0000    0.0000
  band No.  band energies     occupation 
      1     -17.2813      2.00000
      2     -16.3310      2.00000
      3      -8.8082      2.00000
      4      -7.3233      2.00000
      5      -6.8903      2.00000
      6      -5.9804      2.00000
      7      -5.8143      2.00000
      8      -4.8758      2.00000
      9      -4.1969      2.00000
     10      -1.5395      0.00000
     11      -1.2491      0.00000
     12      -1.1004      0.00000
     13      -0.2409      0.00000
     14       2.4855      0.00000

 k-point     4 :       0.3000   -0.0000    0.0000
  band No.  band energies     occupation 
      1     -16.7436      2.00000
      2     -16.0833      2.00000
      3      -8.8194      2.00000
      4      -7.6628      2.00000
      5      -7.6316      2.00000
      6      -6.4657      2.00000
      7      -5.2891      2.00000
      8      -5.2318      2.00000
      9      -4.6638      2.00000
     10      -1.5233      0.00000
     11      -1.5076      0.00000
     12      -0.5643      0.00000
     13       0.1965      0.00000
     14       3.2410      0.00000

 k-point     5 :       0.4000   -0.0000    0.0000
  band No.  band energies     occupation 
      1     -16.2372      2.00000
      2     -15.8582      2.00000
      3      -9.2630      2.00000
      4      -8.2739      2.00000
      5      -7.7134      2.00000
      6      -6.7979      2.00000
      7      -5.5037      2.00000
      8      -4.8721      2.00000
      9      -4.5989      2.00000
     10      -1.6000      0.00000
     11      -1.2350      0.00000
     12      -0.0328      0.00000
     13       0.4435      0.00000
     14       3.1047      0.00000

 k-point     6 :       0.5000   -0.0000    0.0000
  band No.  band energies     occupation 
      1     -16.0194      2.00000
      2     -15.7649      2.00000
      3      -9.4818      2.00000
      4      -8.5110      2.00000
      5      -7.8099      2.00000
      6      -6.9143      2.00000
      7      -5.5918      2.00000
      8      -4.7229      2.00000
      9      -4.3836      2.00000
     10      -1.5810      0.00000
     11      -1.0579      0.00000
     12       0.1593      0.00000
     13       0.5177      0.00000
     14       2.4276      0.00000

 k-point     7 :       0.1000    0.1000    0.0000
  band No.  band energies     occupation 
      1     -17.4048      2.00000
      2     -16.3885      2.00000
      3      -8.8943      2.00000
      4      -7.1476      2.00000
      5      -6.5991      2.00000
      6      -6.0278      2.00000
      7      -5.9645      2.00000
      8      -4.6711      2.00000
      9      -4.0576      2.00000
     10      -1.4830      0.00000
     11      -1.2960      0.00000
     12      -1.1666      0.00000
     13      -0.3051      0.00000
     14       2.3209      0.00000

 k-point     8 :       0.2000    0.1000    0.0000
  band No.  band energies     occupation 
      1     -16.9398      2.00000
      2     -16.1711      2.00000
      3      -8.6746      2.00000
      4      -7.5615      2.00000
      5      -7.2740      2.00000
      6      -6.6346      2.00000
      7      -5.6372      2.00000
      8      -4.8241      2.00000
      9      -4.4905      2.00000
     10      -1.7357      0.00000
     11      -1.3352      0.00000
     12      -1.0657      0.00000
     13       0.2157      0.00000
     14       3.0095      0.00000

 k-point     9 :       0.3000    0.1000    0.0000
  band No.  band energies     occupation 
      1     -16.4076      2.00000
      2     -15.9269      2.00000
      3      -8.9689      2.00000
      4      -8.0620      2.00000
      5      -7.5859      2.00000
      6      -6.8689      2.00000
      7      -5.5296      2.00000
      8      -5.2308      2.00000
      9      -4.5341      2.00000
     10      -1.6495      0.00000
     11      -1.2931      0.00000
     12      -0.5099      0.00000
     13       0.4957      0.00000
     14       3.6864      0.00000

 k-point    10 :       0.4000    0.1000    0.0000
  band No.  band energies     occupation 
      1     -16.0299      2.00000
      2     -15.7585      2.00000
      3      -9.2902      2.00000
      4      -8.5572      2.00000
      5      -7.7282      2.00000
      6      -6.9180      2.00000
      7      -5.5355      2.00000
      8      -5.4081      2.00000
      9      -4.2452      2.00000
     10      -1.5539      0.00000
     11      -1.0543      0.00000
     12      -0.0048      0.00000
     13       0.4442      0.00000
     14       2.7816      0.00000

 k-point    11 :       0.2000    0.2000    0.0000
  band No.  band energies     occupation 
      1     -16.4727      2.00000
      2     -15.9507      2.00000
      3      -8.7739      2.00000
      4      -7.9287      2.00000
      5      -7.4593      2.00000
      6      -7.0418      2.00000
      7      -5.9851      2.00000
      8      -4.9739      2.00000
      9      -4.5285      2.00000
     10      -1.7295      0.00000
     11      -1.2625      0.00000
     12      -0.8916      0.00000
     13       0.6080      0.00000
     14       3.7771      0.00000

 k-point    12 :       0.3000    0.2000    0.0000
  band No.  band energies     occupation 
      1     -16.0465      2.00000
      2     -15.7481      2.00000
      3      -8.9137      2.00000
      4      -8.6244      2.00000
      5      -7.4659      2.00000
      6      -6.9534      2.00000
      7      -6.4105      2.00000
      8      -5.3994      2.00000
      9      -4.2603      2.00000
     10      -1.5920      0.00000
     11      -1.0056      0.00000
     12      -0.5751      0.00000
     13       0.7574      0.00000
     14       3.5600      0.00000

 k-point    13 :       0.4000    0.2000    0.0000
  band No.  band energies     occupation 
      1     -15.8689      2.00000
      2     -15.6633      2.00000
      3      -8.9342      2.00000
      4      -8.8929      2.00000
      5      -7.6633      2.00000
      6      -6.8271      2.00000
      7      -6.4665      2.00000
      8      -5.6585      2.00000
      9      -4.0099      2.00000
     10      -1.7736      0.00000
     11      -0.6342      0.00000
     12      -0.4322      0.00000
     13       0.7802      0.00000
     14       2.9714      0.00000

 k-point    14 :       0.3000    0.3000    0.0000
  band No.  band energies     occupation 
      1     -15.8100      2.00000
      2     -15.6229      2.00000
      3      -9.0434      2.00000
      4      -8.5429      2.00000
      5      -7.5493      2.00000
      6      -7.2274      2.00000
      7      -6.7132      2.00000
      8      -5.7672      2.00000
      9      -3.8871      2.00000
     10      -1.9848      0.00000
     11      -0.6676      0.00000
     12      -0.4018      0.00000
     13       1.0138      0.00000
     14       3.4398      0.00000


--------------------------------------------------------------------------------------------------------


 soft charge-density along one line, spin component           1
         0         1         2         3         4         5         6         7         8         9
 total charge-density along one line
 
 pseudopotential strength for first ion, spin component:           1
-10.070  -0.000  -0.000  -0.000  -0.000   0.111   0.000   0.000
 -0.000 -10.070  -0.000  -0.000  -0.000   0.000   0.111   0.000
 -0.000  -0.000 -10.049  -0.000  -0.000   0.000   0.000   0.109
 -0.000  -0.000  -0.000 -10.070  -0.000   0.000   0.000   0.000
 -0.000  -0.000  -0.000  -0.000 -10.070   0.000   0.000   0.000
  0.111   0.000   0.000   0.000   0.000   0.097  -0.000   0.000
  0.000   0.111   0.000   0.000   0.000  -0.000   0.097  -0.000
  0.000   0.000   0.109   0.000   0.000   0.000  -0.000   0.097
  0.000   0.000   0.000   0.111   0.000  -0.000  -0.000  -0.000
  0.000   0.000   0.000   0.000   0.111  -0.000  -0.000  -0.000
  0.000   0.000  -0.005   0.000  -0.000  -0.000  -0.000   0.000
 -0.000  -0.000   0.001  -0.000   0.000   0.000   0.000  -0.000
 -0.000  -0.000  -0.000  -0.000  -0.007   0.000  -0.000   0.000
 -0.000   0.000   0.000  -0.000  -0.000  -0.000  -0.000   0.000
 -0.007  -0.000   0.000  -0.000  -0.000  -0.000  -0.000  -0.000
  0.000   0.000   0.000   0.000   0.004  -0.000  -0.000  -0.000
  0.000  -0.000  -0.000   0.000   0.000  -0.000   0.000  -0.000
  0.004   0.000  -0.000   0.000   0.000   0.000  -0.000   0.000
 total augmentation occupancy for first ion, spin component:           1
  0.965   0.000  -0.000  -0.000   0.000   0.607   0.000  -0.000   0.000   0.000  -0.000   0.000   0.000   0.000  -0.067  -0.000
  0.000   0.909  -0.000   0.000   0.000   0.000   0.846   0.000   0.000   0.000   0.000   0.000   0.000   0.000   0.000   0.000
 -0.000  -0.000   1.030   0.000   0.000  -0.000   0.000   0.504   0.000   0.000   0.114  -0.019  -0.000  -0.000   0.000   0.000
  0.000   0.000   0.000   0.909  -0.000   0.000   0.000   0.000   0.846   0.000   0.000   0.000   0.000  -0.000  -0.000   0.000
  0.000   0.000   0.000   0.000   0.965   0.000  -0.000   0.000   0.000   0.607  -0.000   0.000  -0.067   0.000  -0.000   0.007
  0.607   0.000  -0.000   0.000   0.000   0.689   0.000  -0.000   0.000  -0.000   0.000   0.000   0.000   0.000  -0.138  -0.000
 -0.000   0.846   0.000   0.000  -0.000   0.000   1.095   0.000   0.000   0.000   0.000   0.000   0.000   0.000   0.000  -0.000
 -0.000   0.000   0.504   0.000   0.000  -0.000   0.000   0.481   0.000   0.000   0.058  -0.021  -0.000  -0.000   0.000   0.000
  0.000   0.000  -0.000   0.846   0.000   0.000   0.000   0.000   1.095  -0.000  -0.000   0.000  -0.000  -0.000   0.000   0.000
  0.000  -0.000   0.000   0.000   0.607  -0.000   0.000   0.000   0.000   0.689  -0.000   0.000  -0.138  -0.000  -0.000   0.023
 -0.000   0.000   0.114   0.000  -0.000  -0.000   0.000   0.058  -0.000   0.000   1.213  -0.187   0.000  -0.000  -0.000   0.000
  0.000   0.000  -0.019   0.000   0.000   0.000   0.000  -0.021   0.000   0.000  -0.187   0.042   0.000   0.000  -0.000   0.000
  0.000  -0.000  -0.000   0.000  -0.067   0.000   0.000  -0.000  -0.000  -0.138   0.000   0.000   0.219   0.000   0.000  -0.033
  0.000   0.000  -0.000  -0.000   0.000   0.000   0.000  -0.000   0.000   0.000   0.000   0.000   0.000   0.266   0.000   0.000
 -0.067   0.000   0.000  -0.000  -0.000  -0.138  -0.000   0.000   0.000  -0.000   0.000  -0.000   0.000   0.000   0.219  -0.000
 -0.000   0.000  -0.000   0.000   0.007  -0.000   0.000   0.000   0.000   0.023   0.000   0.000  -0.033   0.000  -0.000   0.005
  0.000   0.000   0.000   0.000   0.000   0.000   0.000   0.000  -0.000   0.000   0.000   0.000   0.000  -0.039   0.000   0.000
  0.007   0.000  -0.000   0.000   0.000   0.023   0.000  -0.000   0.000   0.000   0.000   0.000  -0.000   0.000  -0.033   0.000


------------------------ aborting loop because EDIFF is reached ----------------------------------------


    CHARGE:  cpu time    0.0730: real time    0.0731
    FORLOC:  cpu time    0.0110: real time    0.0109
    FORNL :  cpu time    0.0620: real time    0.0618
    STRESS:  cpu time    0.3280: real time    0.3277
    FORCOR:  cpu time    0.1490: real time    0.1488
    FORHAR:  cpu time    0.0350: real time    0.0352
    MIXING:  cpu time    0.0050: real time    0.0057
    OFIELD:  cpu time    0.0000: real time    0.0000

  DFT-D2 method for vdW energy calculation
  -------------------------------------------------------------------

  Parameters of vdW forcefield:
         C6(Jnm^6/mol)     R0(A)
   -----------------------------
   Mo      24.670          1.639
   S        5.570          1.683

  IVDW =   1
  VDW_RADIUS =    50.000 A
  VDW_S6 =     0.750
  VDW_SR =     1.000
  VDW_D =    20.000
  LVDW_EWALD = F

  Number of pair interactions contributing to vdW energy:   12009
  Edisp (eV):   -0.59127
    FORVDW:  cpu time    0.0140: real time    0.0187

  FORCE on cell =-STRESS in cart. coord.  units (eV):
  Direction    XX          YY          ZZ          XY          YZ          ZX
  --------------------------------------------------------------------------------------
  Alpha Z    10.92610    10.92610    10.92610
  Ewald    5921.93836  5921.93880 -6489.34278     0.00019     0.00000     0.00013
  Hartree  6003.13233  6003.13234 -5964.87346     0.00002    -0.00000    -0.00000
  E(xc)     -70.35098   -70.35098   -70.96339    -0.00000     0.00000    -0.00000
  Local  -12204.19827-12204.19854 12169.00138    -0.00016    -0.00000    -0.00006
  n-local   127.33231   125.86771   131.81698    -0.24298    -0.00000    -0.00001
  augment   -25.56063   -25.56062   -26.67468     0.00002     0.00000    -0.00000
  Kinetic   236.21975   238.48201   240.22753    -7.46810     0.00001     0.00002
  Fock        0.00000     0.00000     0.00000     0.00000     0.00000     0.00000
  vdW         0.15762     0.15762    -0.13635     0.00000     0.00000    -0.00000
  -------------------------------------------------------------------------------------
  Total      -0.00448    -0.00448    -0.01867     0.00000     0.00000     0.00000
  in kB      -0.02645    -0.02645    -0.11021     0.00000     0.00000     0.00000
  external pressure =       -0.05 kB  Pullay stress =        0.00 kB


 VOLUME and BASIS-vectors are now :
 -----------------------------------------------------------------------------
  energy-cutoff  :      450.00
  volume of cell :      271.36
      direct lattice vectors                 reciprocal lattice vectors
     3.189856830  0.000000000  0.000000000     0.313493694  0.180995668  0.000000000
    -1.594928415  2.762497050  0.000000000     0.000000000  0.361991337  0.000000000
     0.000000000  0.000000000 30.793978868     0.000000000  0.000000000  0.032473881

  length of vectors
     3.189856830  3.189856830 30.793978868     0.361991337  0.361991337  0.032473881


 FORCES acting on ions
    electron-ion (+dipol)            ewald-force                    non-local-force                 convergence-correction
 -----------------------------------------------------------------------------------------------
   -.103E-04 -.137E-05 0.109E-05   0.942E-04 -.109E-03 0.348E-06   -.694E-17 0.208E-16 -.635E-21   -.114E-09 0.333E-10 -.734E-08
   -.853E-03 0.494E-03 0.596E+03   -.873E-04 0.544E-04 -.601E+03   0.867E-18 -.226E-16 0.472E+01   0.541E-09 -.193E-09 0.139E-03
   0.864E-03 0.494E-03 -.596E+03   -.692E-05 0.544E-04 0.601E+03   -.104E-16 -.208E-16 -.472E+01   -.283E-09 -.193E-09 -.139E-03
 -----------------------------------------------------------------------------------------------
   0.143E-05 0.986E-03 0.389E-04   0.592E-14 -.327E-14 0.000E+00   -.165E-16 -.226E-16 -.888E-15   0.144E-09 -.353E-09 -.196E-07
 
 
 POSITION                                       TOTAL-FORCE (eV/Angst)
 -----------------------------------------------------------------------------------
     -0.00000      1.84167      3.70951         0.000000     -0.000000      0.000000
      1.59493      0.92083      2.15067        -0.000000      0.000000     -0.001246
      1.59493      0.92083      5.26835         0.000000     -0.000000      0.001246
 -----------------------------------------------------------------------------------
    total drift:                                0.000001      0.000986      0.000039


--------------------------------------------------------------------------------------------------------



  FREE ENERGIE OF THE ION-ELECTRON SYSTEM (eV)
  ---------------------------------------------------
  free  energy   TOTEN  =       -22.38835340 eV

  energy  without entropy=      -22.38835340  energy(sigma->0) =      -22.38835340
 


--------------------------------------------------------------------------------------------------------


    POTLOK:  cpu time    0.1400: real time    0.1395


--------------------------------------------------------------------------------------------------------


 Quasi-Newton relaxation of ions (Broydens 2nd method)
  g(Force)  = 0.150E-06   g(Stress)= 0.625E-05

 Reset! Starting new Quasi-Newton update for ions 


--------------------------------------------------------------------------------------------------------


  
 reached required accuracy - stopping structural energy minimisation
     LOOP+:  cpu time   22.8295: real time   23.1931
    4ORBIT:  cpu time    0.0000: real time    0.0000

 total amount of memory used by VASP MPI-rank0    73662. kBytes
=======================================================================

   base      :      30000. kBytes
   nonl-proj :      12215. kBytes
   fftplans  :      10208. kBytes
   grid      :      16473. kBytes
   one-center:         31. kBytes
   wavefun   :       4735. kBytes
 
  
  
 General timing and accounting informations for this job:
 ========================================================
  
                  Total CPU time used (sec):       24.835
                            User time (sec):       24.133
                          System time (sec):        0.702
                         Elapsed time (sec):       25.704
  
                   Maximum memory used (kb):       77964.
                   Average memory used (kb):           0.
  
                          Minor page faults:        75600
                          Major page faults:          171
                 Voluntary context switches:         3141
