perl: warning: Setting locale failed.
perl: warning: Please check that your locale settings:
	LANGUAGE = (unset),
	LC_ALL = (unset),
	LC_CTYPE = "UTF-8",
	LANG = "en_US.iso885915"
    are supported and installed on your system.
perl: warning: Falling back to the standard locale ("C").
Starting job 28534471 ("jobname") on c16-31 at Fri Nov 8 14:47:25 CET 2019
 running on    4 total cores
 distrk:  each k-point on    4 cores,    1 groups
 distr:  one band on    2 cores,    2 groups
 using from now: INCAR     
 vasp.5.4.4.18Apr17-6-g9f103f2a35 (build Jun 30 2017 11:15:00) complex          
  
 POSCAR found type information on POSCAR  Mo S 
 POSCAR found :  2 types and       3 ions
 scaLAPACK will be used
 LDA part: xc-table for Pade appr. of Perdew
 POSCAR, INCAR and KPOINTS ok, starting setup
 FFT: planning ...
 WAVECAR not read
 entering main loop
       N       E                     dE             d eps       ncg     rms          rms(c)
DAV:   1     0.137184802168E+03    0.13718E+03   -0.53586E+03   392   0.809E+02
DAV:   2    -0.602078368819E+01   -0.14321E+03   -0.13350E+03   702   0.161E+02
DAV:   3    -0.230455118797E+02   -0.17025E+02   -0.16864E+02   518   0.731E+01
DAV:   4    -0.233921172873E+02   -0.34661E+00   -0.34469E+00   530   0.130E+01
DAV:   5    -0.234007281331E+02   -0.86108E-02   -0.86066E-02   526   0.199E+00    0.687E+00
DAV:   6    -0.222200885327E+02    0.11806E+01   -0.52175E+00   472   0.182E+01    0.278E+00
DAV:   7    -0.218743827920E+02    0.34571E+00   -0.14230E+00   470   0.116E+01    0.169E+00
DAV:   8    -0.218009136151E+02    0.73469E-01   -0.20724E-01   518   0.355E+00    0.312E-01
DAV:   9    -0.217985371779E+02    0.23764E-02   -0.15403E-02   536   0.104E+00    0.162E-01
DAV:  10    -0.217968490107E+02    0.16882E-02   -0.30771E-03   506   0.346E-01    0.472E-02
DAV:  11    -0.217967400848E+02    0.10893E-03   -0.46593E-04   536   0.166E-01    0.277E-02
DAV:  12    -0.217964645946E+02    0.27549E-03   -0.58969E-04   494   0.123E-01    0.264E-02
DAV:  13    -0.217966793182E+02   -0.21472E-03   -0.21261E-04   428   0.117E-01    0.246E-02
DAV:  14    -0.217968615285E+02   -0.18221E-03   -0.53177E-05   422   0.651E-02    0.703E-03
DAV:  15    -0.217969449350E+02   -0.83406E-04   -0.89109E-06   470   0.194E-02    0.305E-03
DAV:  16    -0.217970264364E+02   -0.81501E-04   -0.49902E-06   410   0.128E-02    0.244E-03
DAV:  17    -0.217970583145E+02   -0.31878E-04   -0.12985E-06   398   0.745E-03    0.972E-04
DAV:  18    -0.217970669575E+02   -0.86430E-05   -0.56958E-07   384   0.341E-03    0.902E-04
DAV:  19    -0.217970727697E+02   -0.58121E-05   -0.26258E-07   366   0.275E-03    0.398E-04
DAV:  20    -0.217970772980E+02   -0.45283E-05   -0.27358E-07   350   0.208E-03    0.331E-04
DAV:  21    -0.217970786111E+02   -0.13131E-05   -0.62417E-08   364   0.106E-03    0.208E-04
DAV:  22    -0.217970789816E+02   -0.37042E-06   -0.12396E-08   376   0.488E-04
   1 F= -.22388353E+02 E0= -.22388353E+02  d E =-.223884E+02
 BRION: g(F)=  0.150E-06 g(S)=  0.625E-05
 reached required accuracy - stopping structural energy minimisation

Currently Loaded Modulefiles:
  1) Anaconda3/5.1.0       3) vesta/3.3.8           5) intel/2016.1
  2) gnuplot/5.0.4         4) imagemagick/6.7.9-0   6) vasp/5.4.1.Feb16

Job script resource usage:
       JobID  MaxVMSize     MaxRSS 
------------ ---------- ---------- 
28534471.ba+    499284K      5794K 

Job step resource usage:
       JobID    JobName  AllocCPUS  MaxVMSize     MaxRSS    Elapsed ExitCode 
------------ ---------- ---------- ---------- ---------- ---------- -------- 
28534471        jobname          4                         00:00:33      0:0 
28534471.0    pmi_proxy          1    279832K       516K   00:00:26      0:0 

Job 28534471 ("jobname") completed on c16-31 at Fri Nov 8 14:47:51 CET 2019
