<?xml version="1.0" encoding="ISO-8859-1"?>
<modeling>
 <generator>
  <i name="program" type="string">vasp </i>
  <i name="version" type="string">5.4.4.18Apr17-6-g9f103f2a35  </i>
  <i name="subversion" type="string">(build Jun 30 2017 11:15:00) complex            parallel </i>
  <i name="platform" type="string">STALLO_VASP_5.4.4 </i>
  <i name="date" type="string">2019 11 08 </i>
  <i name="time" type="string">14:47:26 </i>
 </generator>
 <incar>
  <i type="string" name="PREC">accurate  ! low/normal/accurate</i>
  <i type="string" name="ALGO"> Normal      ! Algorithm for electronic</i>
  <i type="int" name="ISPIN">     1</i>
  <i type="int" name="MAXMIX">    80</i>
  <i type="int" name="NELM">   200</i>
  <i type="int" name="NELMIN">     4</i>
  <i type="int" name="IBRION">     1</i>
  <i name="EDIFF">      0.00000100</i>
  <i name="EDIFFG">     -0.01000000</i>
  <i type="int" name="NSW">    50</i>
  <i type="int" name="ISIF">     3</i>
  <i name="ENCUT">    450.00000000</i>
  <i type="logical" name="LREAL"> F  </i>
  <i type="int" name="ISMEAR">     0</i>
  <i name="SIGMA">      0.20000000</i>
  <i type="logical" name="LWAVE"> F  </i>
  <v type="int" name="KPOINT_BSE">    -1     0     0     0</v>
  <i type="int" name="NELM">   200</i>
 </incar>
 <structure name="primitive_cell" >
  <crystal>
   <varray name="basis" >
    <v>       3.18985683       0.00000000       0.00000000 </v>
    <v>      -1.59492842       2.76249705       0.00000000 </v>
    <v>       0.00000000       0.00000000      30.79397887 </v>
   </varray>
   <i name="volume">    271.35562051 </i>
   <varray name="rec_basis" >
    <v>       0.31349369       0.18099567       0.00000000 </v>
    <v>       0.00000000       0.36199134       0.00000000 </v>
    <v>       0.00000000       0.00000000       0.03247388 </v>
   </varray>
  </crystal>
  <varray name="positions" >
   <v>       0.33333300      -0.33333300       0.12046214 </v>
   <v>      -0.33333400       0.33333300       0.17108384 </v>
   <v>      -0.33333300       0.33333300       0.06984045 </v>
  </varray>
 </structure>
 <varray name="primitive_index" >
  <v type="int" >        1 </v>
  <v type="int" >        3 </v>
  <v type="int" >        2 </v>
 </varray>
 <kpoints>
  <generation param="Gamma">
   <v type="int" name="divisions">      10       10        1 </v>
   <v name="usershift">      0.00000000       0.00000000       0.00000000 </v>
   <v name="genvec1">      0.10000000       0.00000000       0.00000000 </v>
   <v name="genvec2">      0.00000000       0.10000000       0.00000000 </v>
   <v name="genvec3">      0.00000000       0.00000000       1.00000000 </v>
   <v name="shift">      0.00000000       0.00000000       0.00000000 </v>
  </generation>
  <varray name="kpointlist" >
   <v>       0.00000000       0.00000000       0.00000000 </v>
   <v>       0.10000000      -0.00000000       0.00000000 </v>
   <v>       0.20000000      -0.00000000       0.00000000 </v>
   <v>       0.30000000      -0.00000000       0.00000000 </v>
   <v>       0.40000000      -0.00000000       0.00000000 </v>
   <v>       0.50000000      -0.00000000       0.00000000 </v>
   <v>       0.10000000       0.10000000       0.00000000 </v>
   <v>       0.20000000       0.10000000       0.00000000 </v>
   <v>       0.30000000       0.10000000       0.00000000 </v>
   <v>       0.40000000       0.10000000       0.00000000 </v>
   <v>       0.20000000       0.20000000       0.00000000 </v>
   <v>       0.30000000       0.20000000       0.00000000 </v>
   <v>       0.40000000       0.20000000       0.00000000 </v>
   <v>       0.30000000       0.30000000       0.00000000 </v>
  </varray>
  <varray name="weights" >
   <v>       0.01000000 </v>
   <v>       0.06000000 </v>
   <v>       0.06000000 </v>
   <v>       0.06000000 </v>
   <v>       0.06000000 </v>
   <v>       0.03000000 </v>
   <v>       0.06000000 </v>
   <v>       0.12000000 </v>
   <v>       0.12000000 </v>
   <v>       0.12000000 </v>
   <v>       0.06000000 </v>
   <v>       0.12000000 </v>
   <v>       0.06000000 </v>
   <v>       0.06000000 </v>
  </varray>
 </kpoints>
 <parameters>
  <separator name="general" >
   <i type="string" name="SYSTEM">unknown system</i>
   <i type="logical" name="LCOMPAT"> F  </i>
  </separator>
  <separator name="electronic" >
   <i type="string" name="PREC">accura</i>
   <i name="ENMAX">    450.00000000</i>
   <i name="ENAUG">    345.27800000</i>
   <i name="EDIFF">      0.00000100</i>
   <i type="int" name="IALGO">    38</i>
   <i type="int" name="IWAVPR">    11</i>
   <i type="int" name="NBANDS">    14</i>
   <i name="NELECT">     18.00000000</i>
   <i type="int" name="TURBO">     0</i>
   <i type="int" name="IRESTART">     0</i>
   <i type="int" name="NREBOOT">     0</i>
   <i type="int" name="NMIN">     0</i>
   <i name="EREF">      0.00000000</i>
   <separator name="electronic smearing" >
    <i type="int" name="ISMEAR">     0</i>
    <i name="SIGMA">      0.20000000</i>
    <i name="KSPACING">      0.50000000</i>
    <i type="logical" name="KGAMMA"> T  </i>
   </separator>
   <separator name="electronic projectors" >
    <i type="logical" name="LREAL"> F  </i>
    <v name="ROPT">      0.00000000      0.00000000</v>
    <i type="int" name="LMAXPAW">  -100</i>
    <i type="int" name="LMAXMIX">     2</i>
    <i type="logical" name="NLSPLINE"> F  </i>
   </separator>
   <separator name="electronic startup" >
    <i type="int" name="ISTART">     0</i>
    <i type="int" name="ICHARG">     2</i>
    <i type="int" name="INIWAV">     1</i>
   </separator>
   <separator name="electronic spin" >
    <i type="int" name="ISPIN">     1</i>
    <i type="logical" name="LNONCOLLINEAR"> F  </i>
    <v name="MAGMOM">      1.00000000      1.00000000      1.00000000</v>
    <i name="NUPDOWN">     -1.00000000</i>
    <i type="logical" name="LSORBIT"> F  </i>
    <v name="SAXIS">      0.00000000      0.00000000      1.00000000</v>
    <i type="logical" name="LSPIRAL"> F  </i>
    <v name="QSPIRAL">      0.00000000      0.00000000      0.00000000</v>
    <i type="logical" name="LZEROZ"> F  </i>
   </separator>
   <separator name="electronic exchange-correlation" >
    <i type="logical" name="LASPH"> F  </i>
    <i type="logical" name="LMETAGGA"> F  </i>
   </separator>
   <separator name="electronic convergence" >
    <i type="int" name="NELM">   200</i>
    <i type="int" name="NELMDL">    -5</i>
    <i type="int" name="NELMIN">     4</i>
    <i name="ENINI">    450.00000000</i>
    <separator name="electronic convergence detail" >
     <i type="logical" name="LDIAG"> T  </i>
     <i type="logical" name="LSUBROT"> F  </i>
     <i name="WEIMIN">      0.00100000</i>
     <i name="EBREAK">      0.00000002</i>
     <i name="DEPER">      0.30000000</i>
     <i type="int" name="NRMM">     4</i>
     <i name="TIME">      0.40000000</i>
    </separator>
   </separator>
   <separator name="electronic mixer" >
    <i name="AMIX">      0.40000000</i>
    <i name="BMIX">      1.00000000</i>
    <i name="AMIN">      0.10000000</i>
    <i name="AMIX_MAG">      1.60000000</i>
    <i name="BMIX_MAG">      1.00000000</i>
    <separator name="electronic mixer details" >
     <i type="int" name="IMIX">     4</i>
     <i type="logical" name="MIXFIRST"> F  </i>
     <i type="int" name="MAXMIX">    80</i>
     <i name="WC">    100.00000000</i>
     <i type="int" name="INIMIX">     1</i>
     <i type="int" name="MIXPRE">     1</i>
     <i type="int" name="MREMOVE">     5</i>
    </separator>
   </separator>
   <separator name="electronic dipolcorrection" >
    <i type="logical" name="LDIPOL"> F  </i>
    <i type="logical" name="LMONO"> F  </i>
    <i type="int" name="IDIPOL">     0</i>
    <i name="EPSILON">      1.00000000</i>
    <v name="DIPOL">   -100.00000000   -100.00000000   -100.00000000</v>
    <i name="EFIELD">      0.00000000</i>
   </separator>
  </separator>
  <separator name="grids" >
   <i type="int" name="NGX">    24</i>
   <i type="int" name="NGY">    24</i>
   <i type="int" name="NGZ">   216</i>
   <i type="int" name="NGXF">    48</i>
   <i type="int" name="NGYF">    48</i>
   <i type="int" name="NGZF">   432</i>
   <i type="logical" name="ADDGRID"> F  </i>
  </separator>
  <separator name="ionic" >
   <i type="int" name="NSW">    50</i>
   <i type="int" name="IBRION">     1</i>
   <i type="int" name="MDALGO">     0</i>
   <i type="int" name="ISIF">     3</i>
   <i name="PSTRESS">      0.00000000</i>
   <i name="EDIFFG">     -0.01000000</i>
   <i type="int" name="NFREE">     0</i>
   <i name="POTIM">      0.50000000</i>
   <i name="SMASS">     -3.00000000</i>
   <i name="SCALEE">      1.00000000</i>
  </separator>
  <separator name="ionic md" >
   <i name="TEBEG">      0.00010000</i>
   <i name="TEEND">      0.00010000</i>
   <i type="int" name="NBLOCK">     1</i>
   <i type="int" name="KBLOCK">    50</i>
   <i type="int" name="NPACO">   256</i>
   <i name="APACO">     16.00000000</i>
  </separator>
  <separator name="symmetry" >
   <i type="int" name="ISYM">     2</i>
   <i name="SYMPREC">      0.00001000</i>
  </separator>
  <separator name="dos" >
   <i type="int" name="LORBIT">     0</i>
   <v name="RWIGS">     -1.00000000     -1.00000000</v>
   <i type="int" name="NEDOS">   301</i>
   <i name="EMIN">     10.00000000</i>
   <i name="EMAX">    -10.00000000</i>
   <i name="EFERMI">      0.00000000</i>
  </separator>
  <separator name="writing" >
   <i type="int" name="NWRITE">     2</i>
   <i type="logical" name="LWAVE"> F  </i>
   <i type="logical" name="LDOWNSAMPLE"> F  </i>
   <i type="logical" name="LCHARG"> T  </i>
   <i type="logical" name="LPARD"> F  </i>
   <i type="logical" name="LVTOT"> F  </i>
   <i type="logical" name="LVHAR"> F  </i>
   <i type="logical" name="LELF"> F  </i>
   <i type="logical" name="LOPTICS"> F  </i>
   <v name="STM">      0.00000000      0.00000000      0.00000000      0.00000000      0.00000000      0.00000000      0.00000000</v>
  </separator>
  <separator name="performance" >
   <i type="int" name="NPAR">     2</i>
   <i type="int" name="NSIM">     4</i>
   <i type="int" name="NBLK">    -1</i>
   <i type="logical" name="LPLANE"> T  </i>
   <i type="logical" name="LSCALAPACK"> T  </i>
   <i type="logical" name="LSCAAWARE"> F  </i>
   <i type="logical" name="LSCALU"> F  </i>
   <i type="logical" name="LASYNC"> F  </i>
   <i type="logical" name="LORBITALREAL"> F  </i>
  </separator>
  <separator name="miscellaneous" >
   <i type="int" name="IDIOT">     3</i>
   <i type="int" name="ISPECIAL">     0</i>
   <i type="logical" name="LMUSIC"> F  </i>
   <v name="POMASS">     95.94000000     32.06600000</v>
   <v name="DARWINR">      0.00000000      0.00000000</v>
   <v name="DARWINV">      1.00000000      1.00000000</v>
   <i type="logical" name="LCORR"> T  </i>
  </separator>
  <i type="logical" name="GGA_COMPAT"> T  </i>
  <i type="logical" name="LBERRY"> F  </i>
  <i type="int" name="ICORELEVEL">     0</i>
  <i type="logical" name="LDAU"> F  </i>
  <i type="int" name="I_CONSTRAINED_M">     0</i>
  <separator name="electronic exchange-correlation" >
   <i type="string" name="GGA">--</i>
   <i type="int" name="VOSKOWN">     0</i>
   <i type="logical" name="LHFCALC"> F  </i>
   <i type="string" name="PRECFOCK"></i>
   <i type="logical" name="LSYMGRAD"> F  </i>
   <i type="logical" name="LHFONE"> F  </i>
   <i type="logical" name="LRHFCALC"> F  </i>
   <i type="logical" name="LTHOMAS"> F  </i>
   <i type="logical" name="LMODELHF"> F  </i>
   <i name="ENCUT4O">     -1.00000000</i>
   <i type="int" name="EXXOEP">     0</i>
   <i type="int" name="FOURORBIT">     0</i>
   <i name="AEXX">      0.00000000</i>
   <i name="HFALPHA">      0.00000000</i>
   <i name="MCALPHA">      0.00000000</i>
   <i name="ALDAX">      1.00000000</i>
   <i name="AGGAX">      1.00000000</i>
   <i name="ALDAC">      1.00000000</i>
   <i name="AGGAC">      1.00000000</i>
   <i type="int" name="NKREDX">     1</i>
   <i type="int" name="NKREDY">     1</i>
   <i type="int" name="NKREDZ">     1</i>
   <i type="logical" name="SHIFTRED"> F  </i>
   <i type="logical" name="ODDONLY"> F  </i>
   <i type="logical" name="EVENONLY"> F  </i>
   <i type="int" name="LMAXFOCK">     0</i>
   <i type="int" name="NMAXFOCKAE">     0</i>
   <i type="logical" name="LFOCKAEDFT"> F  </i>
   <i name="HFSCREEN">      0.00000000</i>
   <i name="HFSCREENC">      0.00000000</i>
   <i type="int" name="NBANDSGWLOW">     0</i>
  </separator>
  <separator name="vdW DFT" >
   <i type="logical" name="LUSE_VDW"> F  </i>
   <i name="Zab_VDW">     -0.84910000</i>
   <i name="PARAM1">      0.12340000</i>
   <i name="PARAM2">      1.00000000</i>
   <i name="PARAM3">      0.00000000</i>
  </separator>
  <separator name="model GW" >
   <i type="int" name="MODEL_GW">     0</i>
   <i name="MODEL_EPS0">     54.27112410</i>
   <i name="MODEL_ALPHA">      1.00000000</i>
  </separator>
  <separator name="linear response parameters" >
   <i type="logical" name="LEPSILON"> F  </i>
   <i type="logical" name="LRPA"> F  </i>
   <i type="logical" name="LNABLA"> F  </i>
   <i type="logical" name="LVEL"> F  </i>
   <i type="int" name="KINTER">     0</i>
   <i name="CSHIFT">      0.10000000</i>
   <i name="OMEGAMAX">     -1.00000000</i>
   <i name="DEG_THRESHOLD">      0.00200000</i>
   <i name="RTIME">     -0.10000000</i>
   <i name="WPLASMAI">      0.00000000</i>
   <v name="DFIELD">      0.00000000      0.00000000      0.00000000</v>
   <v name="WPLASMA">      0.00000000      0.00000000      0.00000000      0.00000000      0.00000000      0.00000000      0.00000000      0.00000000      0.00000000</v>
  </separator>
  <separator name="orbital magnetization" >
   <i type="logical" name="NUCIND"> F  </i>
   <v name="MAGPOS">      0.00000000      0.00000000      0.00000000</v>
   <i type="logical" name="LNICSALL"> T  </i>
   <i type="logical" name="ORBITALMAG"> F  </i>
   <i type="logical" name="LMAGBLOCH"> F  </i>
   <i type="logical" name="LCHIMAG"> F  </i>
   <i type="logical" name="LGAUGE"> T  </i>
   <i type="int" name="MAGATOM">     0</i>
   <v name="MAGDIPOL">      0.00000000      0.00000000      0.00000000</v>
   <v name="AVECCONST">      0.00000000      0.00000000      0.00000000</v>
  </separator>
  <separator name="response functions" >
   <i type="logical" name="LADDER"> F  </i>
   <i type="logical" name="LRPAFORCE"> F  </i>
   <i type="logical" name="LFXC"> F  </i>
   <i type="logical" name="LHARTREE"> T  </i>
   <i type="int" name="IBSE">     0</i>
   <v type="int" name="KPOINT">    -1     0     0     0</v>
   <i type="logical" name="LTCTE"> F  </i>
   <i type="logical" name="LTETE"> F  </i>
   <i type="logical" name="LTRIPLET"> F  </i>
   <i type="logical" name="LFXCEPS"> F  </i>
   <i type="logical" name="LFXHEG"> F  </i>
   <i type="int" name="NATURALO">     2</i>
   <i type="logical" name="L2ORDER"> F  </i>
   <i type="logical" name="LMP2LT"> F  </i>
   <i type="logical" name="LUSEW"> F  </i>
   <i name="ENCUTGW">     -2.00000000</i>
   <i name="ENCUTGWSOFT">     -2.00000000</i>
   <i name="ENCUTLF">     -1.00000000</i>
   <i type="int" name="LMAXMP2">    -1</i>
   <i name="SCISSOR">      0.00000000</i>
   <i type="int" name="NOMEGA">     0</i>
   <i type="int" name="NOMEGAR">     0</i>
   <i type="int" name="NBANDSGW">    -1</i>
   <i type="int" name="NBANDSO">    -1</i>
   <i type="int" name="NBANDSV">    -1</i>
   <i type="int" name="NELM">   200</i>
   <i type="int" name="NELMHF">     1</i>
   <i type="int" name="DIM">     3</i>
   <i type="int" name="ANTIRES">     0</i>
   <i name="OMEGAMAX">    -30.00000000</i>
   <i name="OMEGAMIN">    -30.00000000</i>
   <i name="OMEGATL">   -200.00000000</i>
   <i type="int" name="OMEGAGRID">   140</i>
   <i name="CSHIFT">     -0.10000000</i>
   <i type="logical" name="SELFENERGY"> F  </i>
   <i type="logical" name="LSPECTRAL"> F  </i>
   <i type="logical" name="LSPECTRALGW"> F  </i>
   <i type="logical" name="LSINGLES"> F  </i>
   <i type="logical" name="LFERMIGW"> F  </i>
   <i type="logical" name="ODDONLYGW"> F  </i>
   <i type="logical" name="EVENONLYGW"> F  </i>
   <i type="int" name="NKREDLFX">     1</i>
   <i type="int" name="NKREDLFY">     1</i>
   <i type="int" name="NKREDLFZ">     1</i>
   <i type="int" name="MAXMEM">  2800</i>
   <i type="int" name="TELESCOPE">     0</i>
   <i type="int" name="TAUPAR">     1</i>
   <i type="int" name="OMEGAPAR">    -1</i>
   <i name="LAMBDA">      1.00000000</i>
  </separator>
  <separator name="External order field" >
   <i name="OFIELD_KAPPA">      0.00000000</i>
   <v name="OFIELD_K">      0.00000000      0.00000000      0.00000000</v>
   <i name="OFIELD_Q6_NEAR">      0.00000000</i>
   <i name="OFIELD_Q6_FAR">      0.00000000</i>
   <i name="OFIELD_A">      0.00000000</i>
  </separator>
 </parameters>
 <atominfo>
  <atoms>       3 </atoms>
  <types>       2 </types>
  <array name="atoms" >
   <dimension dim="1">ion</dimension>
   <field type="string">element</field>
   <field type="int">atomtype</field>
   <set>
    <rc><c>Mo</c><c>   1</c></rc>
    <rc><c>S </c><c>   2</c></rc>
    <rc><c>S </c><c>   2</c></rc>
   </set>
  </array>
  <array name="atomtypes" >
   <dimension dim="1">type</dimension>
   <field type="int">atomspertype</field>
   <field type="string">element</field>
   <field>mass</field>
   <field>valence</field>
   <field type="string">pseudopotential</field>
   <set>
    <rc><c>   1</c><c>Mo</c><c>     95.94000000</c><c>      6.00000000</c><c> PAW_PBE Mo 08Apr2002                   </c></rc>
    <rc><c>   2</c><c>S </c><c>     32.06600000</c><c>      6.00000000</c><c>  PAW_PBE S 17Jan2003                   </c></rc>
   </set>
  </array>
 </atominfo>
 <structure name="initialpos" >
  <crystal>
   <varray name="basis" >
    <v>       3.18985683       0.00000000       0.00000000 </v>
    <v>      -1.59492842       2.76249705       0.00000000 </v>
    <v>       0.00000000       0.00000000      30.79397887 </v>
   </varray>
   <i name="volume">    271.35562051 </i>
   <varray name="rec_basis" >
    <v>       0.31349369       0.18099567       0.00000000 </v>
    <v>       0.00000000       0.36199134       0.00000000 </v>
    <v>       0.00000000       0.00000000       0.03247388 </v>
   </varray>
  </crystal>
  <varray name="positions" >
   <v>       0.33333300       0.66666700       0.12046214 </v>
   <v>       0.66666700       0.33333300       0.06984045 </v>
   <v>       0.66666600       0.33333300       0.17108384 </v>
  </varray>
 </structure>
 <calculation>
  <scstep>
   <time name="dav">    0.70    0.70</time>
   <time name="total">    0.85    0.87</time>
   <energy>
    <i name="alphaZ">     10.92610231 </i>
    <i name="ewald">   5354.53473861 </i>
    <i name="hartreedc">  -6027.92195658 </i>
    <i name="XCdc">    -36.28686144 </i>
    <i name="pawpsdc">    406.88651198 </i>
    <i name="pawaedc">   -329.34073203 </i>
    <i name="eentropy">     -0.05796644 </i>
    <i name="bandstr">    -12.71014824 </i>
    <i name="atom">    771.15511399 </i>
    <i name="e_fr_energy">    137.18480217 </i>
    <i name="e_wo_entrp">    137.24276861 </i>
    <i name="e_0_energy">    137.21378539 </i>
   </energy>
  </scstep>
  <scstep>
   <time name="dav">    1.08    1.09</time>
   <time name="total">    1.08    1.09</time>
   <energy>
    <i name="e_fr_energy">     -6.02078369 </i>
    <i name="e_wo_entrp">     -6.02078369 </i>
    <i name="e_0_energy">     -6.02078369 </i>
   </energy>
  </scstep>
  <scstep>
   <time name="dav">    0.85    0.85</time>
   <time name="total">    0.85    0.86</time>
   <energy>
    <i name="e_fr_energy">    -23.04551188 </i>
    <i name="e_wo_entrp">    -23.04551188 </i>
    <i name="e_0_energy">    -23.04551188 </i>
   </energy>
  </scstep>
  <scstep>
   <time name="dav">    0.87    0.87</time>
   <time name="total">    0.87    0.87</time>
   <energy>
    <i name="e_fr_energy">    -23.39211729 </i>
    <i name="e_wo_entrp">    -23.39211729 </i>
    <i name="e_0_energy">    -23.39211729 </i>
   </energy>
  </scstep>
  <scstep>
   <time name="dav">    0.86    0.86</time>
   <time name="total">    0.94    0.94</time>
   <energy>
    <i name="e_fr_energy">    -23.40072813 </i>
    <i name="e_wo_entrp">    -23.40072813 </i>
    <i name="e_0_energy">    -23.40072813 </i>
   </energy>
  </scstep>
  <scstep>
   <time name="dav">    0.79    0.80</time>
   <time name="total">    1.02    1.02</time>
   <energy>
    <i name="e_fr_energy">    -22.22008853 </i>
    <i name="e_wo_entrp">    -22.22008846 </i>
    <i name="e_0_energy">    -22.22008850 </i>
   </energy>
  </scstep>
  <scstep>
   <time name="dav">    0.79    0.79</time>
   <time name="total">    1.00    1.01</time>
   <energy>
    <i name="e_fr_energy">    -21.87438279 </i>
    <i name="e_wo_entrp">    -21.87438279 </i>
    <i name="e_0_energy">    -21.87438279 </i>
   </energy>
  </scstep>
  <scstep>
   <time name="dav">    0.85    0.85</time>
   <time name="total">    1.06    1.06</time>
   <energy>
    <i name="e_fr_energy">    -21.80091362 </i>
    <i name="e_wo_entrp">    -21.80091361 </i>
    <i name="e_0_energy">    -21.80091362 </i>
   </energy>
  </scstep>
  <scstep>
   <time name="dav">    0.87    0.87</time>
   <time name="total">    1.09    1.09</time>
   <energy>
    <i name="e_fr_energy">    -21.79853718 </i>
    <i name="e_wo_entrp">    -21.79853718 </i>
    <i name="e_0_energy">    -21.79853718 </i>
   </energy>
  </scstep>
  <scstep>
   <time name="dav">    0.83    0.83</time>
   <time name="total">    1.05    1.05</time>
   <energy>
    <i name="e_fr_energy">    -21.79684901 </i>
    <i name="e_wo_entrp">    -21.79684901 </i>
    <i name="e_0_energy">    -21.79684901 </i>
   </energy>
  </scstep>
  <scstep>
   <time name="dav">    0.87    0.87</time>
   <time name="total">    1.08    1.09</time>
   <energy>
    <i name="e_fr_energy">    -21.79674008 </i>
    <i name="e_wo_entrp">    -21.79674008 </i>
    <i name="e_0_energy">    -21.79674008 </i>
   </energy>
  </scstep>
  <scstep>
   <time name="dav">    0.82    0.82</time>
   <time name="total">    1.03    1.04</time>
   <energy>
    <i name="e_fr_energy">    -21.79646459 </i>
    <i name="e_wo_entrp">    -21.79646459 </i>
    <i name="e_0_energy">    -21.79646459 </i>
   </energy>
  </scstep>
  <scstep>
   <time name="dav">    0.74    0.74</time>
   <time name="total">    0.95    0.96</time>
   <energy>
    <i name="e_fr_energy">    -21.79667932 </i>
    <i name="e_wo_entrp">    -21.79667932 </i>
    <i name="e_0_energy">    -21.79667932 </i>
   </energy>
  </scstep>
  <scstep>
   <time name="dav">    0.73    0.73</time>
   <time name="total">    0.95    0.95</time>
   <energy>
    <i name="e_fr_energy">    -21.79686153 </i>
    <i name="e_wo_entrp">    -21.79686153 </i>
    <i name="e_0_energy">    -21.79686153 </i>
   </energy>
  </scstep>
  <scstep>
   <time name="dav">    0.79    0.79</time>
   <time name="total">    1.01    1.01</time>
   <energy>
    <i name="e_fr_energy">    -21.79694493 </i>
    <i name="e_wo_entrp">    -21.79694493 </i>
    <i name="e_0_energy">    -21.79694493 </i>
   </energy>
  </scstep>
  <scstep>
   <time name="dav">    0.72    0.72</time>
   <time name="total">    0.94    0.94</time>
   <energy>
    <i name="e_fr_energy">    -21.79702644 </i>
    <i name="e_wo_entrp">    -21.79702644 </i>
    <i name="e_0_energy">    -21.79702644 </i>
   </energy>
  </scstep>
  <scstep>
   <time name="dav">    0.70    0.70</time>
   <time name="total">    0.92    0.92</time>
   <energy>
    <i name="e_fr_energy">    -21.79705831 </i>
    <i name="e_wo_entrp">    -21.79705831 </i>
    <i name="e_0_energy">    -21.79705831 </i>
   </energy>
  </scstep>
  <scstep>
   <time name="dav">    0.69    0.69</time>
   <time name="total">    0.90    0.90</time>
   <energy>
    <i name="e_fr_energy">    -21.79706696 </i>
    <i name="e_wo_entrp">    -21.79706696 </i>
    <i name="e_0_energy">    -21.79706696 </i>
   </energy>
  </scstep>
  <scstep>
   <time name="dav">    0.66    0.67</time>
   <time name="total">    0.88    0.88</time>
   <energy>
    <i name="e_fr_energy">    -21.79707277 </i>
    <i name="e_wo_entrp">    -21.79707277 </i>
    <i name="e_0_energy">    -21.79707277 </i>
   </energy>
  </scstep>
  <scstep>
   <time name="dav">    0.65    0.65</time>
   <time name="total">    0.86    0.87</time>
   <energy>
    <i name="e_fr_energy">    -21.79707730 </i>
    <i name="e_wo_entrp">    -21.79707730 </i>
    <i name="e_0_energy">    -21.79707730 </i>
   </energy>
  </scstep>
  <scstep>
   <time name="dav">    0.66    0.66</time>
   <time name="total">    0.88    0.88</time>
   <energy>
    <i name="e_fr_energy">    -21.79707861 </i>
    <i name="e_wo_entrp">    -21.79707861 </i>
    <i name="e_0_energy">    -21.79707861 </i>
   </energy>
  </scstep>
  <scstep>
   <time name="dav">    0.68    0.68</time>
   <time name="total">    0.82    0.82</time>
   <energy>
    <i name="alphaZ">     10.92610231 </i>
    <i name="ewald">   5354.53473861 </i>
    <i name="hartreedc">  -6041.38985653 </i>
    <i name="XCdc">    -35.17120548 </i>
    <i name="pawpsdc">    473.39880309 </i>
    <i name="pawaedc">   -397.60758366 </i>
    <i name="eentropy">     -0.00000000 </i>
    <i name="bandstr">   -157.64319132 </i>
    <i name="atom">    771.15511399 </i>
    <i name="e_fr_energy">    -21.79707898 </i>
    <i name="e_wo_entrp">    -21.79707898 </i>
    <i name="e_0_energy">    -21.79707898 </i>
   </energy>
  </scstep>
  <structure>
   <crystal>
    <varray name="basis" >
     <v>       3.18985683       0.00000000       0.00000000 </v>
     <v>      -1.59492842       2.76249705       0.00000000 </v>
     <v>       0.00000000       0.00000000      30.79397887 </v>
    </varray>
    <i name="volume">    271.35562051 </i>
    <varray name="rec_basis" >
     <v>       0.31349369       0.18099567       0.00000000 </v>
     <v>       0.00000000       0.36199134       0.00000000 </v>
     <v>       0.00000000       0.00000000       0.03247388 </v>
    </varray>
   </crystal>
   <varray name="positions" >
    <v>       0.33333300       0.66666700       0.12046214 </v>
    <v>       0.66666700       0.33333300       0.06984045 </v>
    <v>       0.66666600       0.33333300       0.17108384 </v>
   </varray>
  </structure>
  <varray name="forces" >
   <v>       0.00000000      -0.00000000       0.00000000 </v>
   <v>      -0.00000000       0.00000000      -0.00124631 </v>
   <v>       0.00000000      -0.00000000       0.00124631 </v>
  </varray>
  <varray name="stress" >
   <v>      -0.02644903       0.00000000       0.00000000 </v>
   <v>       0.00000000      -0.02644903       0.00000000 </v>
   <v>       0.00000000       0.00000000      -0.11020984 </v>
  </varray>
  <energy>
   <i name="e_fr_energy">    -22.38835340 </i>
   <i name="e_wo_entrp">    -22.38835340 </i>
   <i name="e_0_energy">     -0.00000000 </i>
  </energy>
  <time name="totalsc">   22.83   23.19</time>
  <eigenvalues>
   <array>
    <dimension dim="1">band</dimension>
    <dimension dim="2">kpoint</dimension>
    <dimension dim="3">spin</dimension>
    <field>eigene</field>
    <field>occ</field>
    <set>
     <set comment="spin 1">
      <set comment="kpoint 1">
       <r>  -17.8063    1.0000 </r>
       <r>  -16.5778    1.0000 </r>
       <r>   -9.3240    1.0000 </r>
       <r>   -6.3792    1.0000 </r>
       <r>   -6.3792    1.0000 </r>
       <r>   -5.4680    1.0000 </r>
       <r>   -5.2638    1.0000 </r>
       <r>   -5.2638    1.0000 </r>
       <r>   -3.7424    1.0000 </r>
       <r>   -0.9857    0.0000 </r>
       <r>   -0.9856    0.0000 </r>
       <r>   -0.7476    0.0000 </r>
       <r>   -0.7475    0.0000 </r>
       <r>    1.6682    0.0000 </r>
      </set>
      <set comment="kpoint 2">
       <r>  -17.6676    1.0000 </r>
       <r>  -16.5123    1.0000 </r>
       <r>   -9.1632    1.0000 </r>
       <r>   -6.6896    1.0000 </r>
       <r>   -6.2264    1.0000 </r>
       <r>   -6.1075    1.0000 </r>
       <r>   -5.4897    1.0000 </r>
       <r>   -4.8519    1.0000 </r>
       <r>   -3.8255    1.0000 </r>
       <r>   -1.1606    0.0000 </r>
       <r>   -1.1122    0.0000 </r>
       <r>   -0.9081    0.0000 </r>
       <r>   -0.7433    0.0000 </r>
       <r>    1.9204    0.0000 </r>
      </set>
      <set comment="kpoint 3">
       <r>  -17.2813    1.0000 </r>
       <r>  -16.3310    1.0000 </r>
       <r>   -8.8082    1.0000 </r>
       <r>   -7.3233    1.0000 </r>
       <r>   -6.8903    1.0000 </r>
       <r>   -5.9804    1.0000 </r>
       <r>   -5.8143    1.0000 </r>
       <r>   -4.8758    1.0000 </r>
       <r>   -4.1969    1.0000 </r>
       <r>   -1.5395    0.0000 </r>
       <r>   -1.2491    0.0000 </r>
       <r>   -1.1004    0.0000 </r>
       <r>   -0.2409    0.0000 </r>
       <r>    2.4855    0.0000 </r>
      </set>
      <set comment="kpoint 4">
       <r>  -16.7436    1.0000 </r>
       <r>  -16.0833    1.0000 </r>
       <r>   -8.8194    1.0000 </r>
       <r>   -7.6628    1.0000 </r>
       <r>   -7.6316    1.0000 </r>
       <r>   -6.4657    1.0000 </r>
       <r>   -5.2891    1.0000 </r>
       <r>   -5.2318    1.0000 </r>
       <r>   -4.6638    1.0000 </r>
       <r>   -1.5233    0.0000 </r>
       <r>   -1.5076    0.0000 </r>
       <r>   -0.5643    0.0000 </r>
       <r>    0.1965    0.0000 </r>
       <r>    3.2410    0.0000 </r>
      </set>
      <set comment="kpoint 5">
       <r>  -16.2372    1.0000 </r>
       <r>  -15.8582    1.0000 </r>
       <r>   -9.2630    1.0000 </r>
       <r>   -8.2739    1.0000 </r>
       <r>   -7.7134    1.0000 </r>
       <r>   -6.7979    1.0000 </r>
       <r>   -5.5037    1.0000 </r>
       <r>   -4.8721    1.0000 </r>
       <r>   -4.5989    1.0000 </r>
       <r>   -1.6000    0.0000 </r>
       <r>   -1.2350    0.0000 </r>
       <r>   -0.0328    0.0000 </r>
       <r>    0.4435    0.0000 </r>
       <r>    3.1047    0.0000 </r>
      </set>
      <set comment="kpoint 6">
       <r>  -16.0194    1.0000 </r>
       <r>  -15.7649    1.0000 </r>
       <r>   -9.4818    1.0000 </r>
       <r>   -8.5110    1.0000 </r>
       <r>   -7.8099    1.0000 </r>
       <r>   -6.9143    1.0000 </r>
       <r>   -5.5918    1.0000 </r>
       <r>   -4.7229    1.0000 </r>
       <r>   -4.3836    1.0000 </r>
       <r>   -1.5810    0.0000 </r>
       <r>   -1.0579    0.0000 </r>
       <r>    0.1593    0.0000 </r>
       <r>    0.5177    0.0000 </r>
       <r>    2.4276    0.0000 </r>
      </set>
      <set comment="kpoint 7">
       <r>  -17.4048    1.0000 </r>
       <r>  -16.3885    1.0000 </r>
       <r>   -8.8943    1.0000 </r>
       <r>   -7.1476    1.0000 </r>
       <r>   -6.5991    1.0000 </r>
       <r>   -6.0278    1.0000 </r>
       <r>   -5.9645    1.0000 </r>
       <r>   -4.6711    1.0000 </r>
       <r>   -4.0576    1.0000 </r>
       <r>   -1.4830    0.0000 </r>
       <r>   -1.2960    0.0000 </r>
       <r>   -1.1666    0.0000 </r>
       <r>   -0.3051    0.0000 </r>
       <r>    2.3209    0.0000 </r>
      </set>
      <set comment="kpoint 8">
       <r>  -16.9398    1.0000 </r>
       <r>  -16.1711    1.0000 </r>
       <r>   -8.6746    1.0000 </r>
       <r>   -7.5615    1.0000 </r>
       <r>   -7.2740    1.0000 </r>
       <r>   -6.6346    1.0000 </r>
       <r>   -5.6372    1.0000 </r>
       <r>   -4.8241    1.0000 </r>
       <r>   -4.4905    1.0000 </r>
       <r>   -1.7357    0.0000 </r>
       <r>   -1.3352    0.0000 </r>
       <r>   -1.0657    0.0000 </r>
       <r>    0.2157    0.0000 </r>
       <r>    3.0095    0.0000 </r>
      </set>
      <set comment="kpoint 9">
       <r>  -16.4076    1.0000 </r>
       <r>  -15.9269    1.0000 </r>
       <r>   -8.9689    1.0000 </r>
       <r>   -8.0620    1.0000 </r>
       <r>   -7.5859    1.0000 </r>
       <r>   -6.8689    1.0000 </r>
       <r>   -5.5296    1.0000 </r>
       <r>   -5.2308    1.0000 </r>
       <r>   -4.5341    1.0000 </r>
       <r>   -1.6495    0.0000 </r>
       <r>   -1.2931    0.0000 </r>
       <r>   -0.5099    0.0000 </r>
       <r>    0.4957    0.0000 </r>
       <r>    3.6864    0.0000 </r>
      </set>
      <set comment="kpoint 10">
       <r>  -16.0299    1.0000 </r>
       <r>  -15.7585    1.0000 </r>
       <r>   -9.2902    1.0000 </r>
       <r>   -8.5572    1.0000 </r>
       <r>   -7.7282    1.0000 </r>
       <r>   -6.9180    1.0000 </r>
       <r>   -5.5355    1.0000 </r>
       <r>   -5.4081    1.0000 </r>
       <r>   -4.2452    1.0000 </r>
       <r>   -1.5539    0.0000 </r>
       <r>   -1.0543    0.0000 </r>
       <r>   -0.0048    0.0000 </r>
       <r>    0.4442    0.0000 </r>
       <r>    2.7816    0.0000 </r>
      </set>
      <set comment="kpoint 11">
       <r>  -16.4727    1.0000 </r>
       <r>  -15.9507    1.0000 </r>
       <r>   -8.7739    1.0000 </r>
       <r>   -7.9287    1.0000 </r>
       <r>   -7.4593    1.0000 </r>
       <r>   -7.0418    1.0000 </r>
       <r>   -5.9851    1.0000 </r>
       <r>   -4.9739    1.0000 </r>
       <r>   -4.5285    1.0000 </r>
       <r>   -1.7295    0.0000 </r>
       <r>   -1.2625    0.0000 </r>
       <r>   -0.8916    0.0000 </r>
       <r>    0.6080    0.0000 </r>
       <r>    3.7771    0.0000 </r>
      </set>
      <set comment="kpoint 12">
       <r>  -16.0465    1.0000 </r>
       <r>  -15.7481    1.0000 </r>
       <r>   -8.9137    1.0000 </r>
       <r>   -8.6244    1.0000 </r>
       <r>   -7.4659    1.0000 </r>
       <r>   -6.9534    1.0000 </r>
       <r>   -6.4105    1.0000 </r>
       <r>   -5.3994    1.0000 </r>
       <r>   -4.2603    1.0000 </r>
       <r>   -1.5920    0.0000 </r>
       <r>   -1.0056    0.0000 </r>
       <r>   -0.5751    0.0000 </r>
       <r>    0.7574    0.0000 </r>
       <r>    3.5600    0.0000 </r>
      </set>
      <set comment="kpoint 13">
       <r>  -15.8689    1.0000 </r>
       <r>  -15.6633    1.0000 </r>
       <r>   -8.9342    1.0000 </r>
       <r>   -8.8929    1.0000 </r>
       <r>   -7.6633    1.0000 </r>
       <r>   -6.8271    1.0000 </r>
       <r>   -6.4665    1.0000 </r>
       <r>   -5.6585    1.0000 </r>
       <r>   -4.0099    1.0000 </r>
       <r>   -1.7736    0.0000 </r>
       <r>   -0.6342    0.0000 </r>
       <r>   -0.4322    0.0000 </r>
       <r>    0.7802    0.0000 </r>
       <r>    2.9714    0.0000 </r>
      </set>
      <set comment="kpoint 14">
       <r>  -15.8100    1.0000 </r>
       <r>  -15.6229    1.0000 </r>
       <r>   -9.0434    1.0000 </r>
       <r>   -8.5429    1.0000 </r>
       <r>   -7.5493    1.0000 </r>
       <r>   -7.2274    1.0000 </r>
       <r>   -6.7132    1.0000 </r>
       <r>   -5.7672    1.0000 </r>
       <r>   -3.8871    1.0000 </r>
       <r>   -1.9848    0.0000 </r>
       <r>   -0.6676    0.0000 </r>
       <r>   -0.4018    0.0000 </r>
       <r>    1.0138    0.0000 </r>
       <r>    3.4398    0.0000 </r>
      </set>
     </set>
    </set>
   </array>
  </eigenvalues>
  <separator name="orbital magnetization" >
   <v name="MAGDIPOLOUT">      0.00000000      0.00000000      0.00000000</v>
  </separator>
 </calculation>
 <structure name="finalpos" >
  <crystal>
   <varray name="basis" >
    <v>       3.18985683       0.00000000       0.00000000 </v>
    <v>      -1.59492842       2.76249705       0.00000000 </v>
    <v>       0.00000000       0.00000000      30.79397887 </v>
   </varray>
   <i name="volume">    271.35562051 </i>
   <varray name="rec_basis" >
    <v>       0.31349369       0.18099567       0.00000000 </v>
    <v>       0.00000000       0.36199134       0.00000000 </v>
    <v>       0.00000000       0.00000000       0.03247388 </v>
   </varray>
  </crystal>
  <varray name="positions" >
   <v>       0.33333300       0.66666700       0.12046214 </v>
   <v>       0.66666700       0.33333300       0.06984045 </v>
   <v>       0.66666600       0.33333300       0.17108384 </v>
  </varray>
 </structure>
</modeling>
