unknown system                          
   1.00000000000000     
     3.190316    0.000000    0.000000
    -1.595158    2.762894    0.000000
     0.000000    0.000000   14.879004
   Mo   S 
     2     4
Direct
  0.333333  0.666667  0.250000
  0.666667  0.333333  0.750000
  0.333333  0.666667  0.855174
  0.666667  0.333333  0.144826
  0.666666  0.333333  0.355174
  0.333334  0.666667  0.644826
 
   36   36  180
 0.39747     0.40048     0.40953     0.42457     0.44555     0.47232     0.50458     0.54184     0.58335     0.62812    
 0.67492     0.72231     0.76865     0.81214     0.85091     0.88322     0.90753     0.92263     0.92774     0.92261    
 0.90749     0.88316     0.85083     0.81205     0.76856     0.72222     0.67483     0.62803     0.58328     0.54178    
 0.50453     0.47228     0.44552     0.42455     0.40951     0.40048     0.40048     0.40048     0.40651     0.41857    
 0.43661     0.46054     0.49016     0.52508     0.56468     0.60808     0.65413     0.70149     0.74862     0.79381    
 0.83526     0.87110     0.89966     0.91953     0.92971     0.92967     0.91943     0.89953     0.87100     0.83522    
 0.79383     0.74862     0.70144     0.65402     0.60795     0.56457     0.52501     0.49012     0.46051     0.43658    
 0.41855     0.40650     0.40951     0.40651     0.40952     0.41856     0.43364     0.45471     0.48163     0.51414    
 0.55172     0.59363     0.63882     0.68602     0.73373     0.78033     0.82405     0.86309     0.89565     0.92014    
 0.93534     0.94048     0.93529     0.92004     0.89553     0.86301     0.82403     0.78032     0.73369     0.68592    
 0.63869     0.59352     0.55165     0.51409     0.48160     0.45468     0.43361     0.41855     0.42455     0.41855    
 0.41856     0.42456     0.43661     0.45471     0.47883     0.50877     0.54414     0.58432     0.62840     0.67522    
 0.72333     0.77114     0.81689     0.85880     0.89504     0.92393     0.94403     0.95436     0.95437     0.94405    
 0.92391     0.89497     0.85869     0.81676     0.77100     0.72321     0.67512     0.62834     0.58428     0.54411    
 0.50873     0.47879     0.45468     0.43658     0.44552     0.43659     0.43362     0.43659     0.44554     0.46054    
 0.48164     0.50879     0.54169     0.57983     0.62242     0.66843     0.71657     0.76528     0.81282     0.85736    
 0.89705     0.93011     0.95496     0.97039     0.97564     0.97044     0.95502     0.93013     0.89699     0.85721    
 0.81263     0.76512     0.71649     0.66842     0.62242     0.57980     0.54164     0.50873     0.48160     0.46051    
 0.47227     0.46052     0.45469     0.45469     0.46052     0.47230     0.49015     0.51414     0.54418     0.57988    
 0.62055     0.66525     0.71284     0.76190     0.81076     0.85759     0.90046     0.93749     0.96694     0.98740    
 0.99789     0.99790     0.98742     0.96695     0.93748     0.90040     0.85748     0.81065     0.76183     0.71283    
 0.66524     0.62049     0.57980     0.54412     0.51410     0.49011     0.50451     0.49012     0.48162     0.47881    
 0.48161     0.49013     0.50455     0.52503     0.55169     0.58436     0.62252     0.66533     0.71174     0.76045    
 0.80993     0.85840     0.90395     0.94461     0.97847      1.0039      1.0196      1.0249      1.0196      1.0038    
 0.97839     0.94459     0.90397     0.85840     0.80990     0.76041     0.71168     0.66523     0.62240     0.58428    
 0.55167     0.52501     0.54175     0.52501     0.51412     0.50877     0.50875     0.51411     0.52505     0.54180    
 0.56459     0.59353     0.62839     0.66851     0.71294     0.76052     0.80980     0.85910     0.90654     0.95017    
 0.98798      1.0181      1.0390      1.0497      1.0497      1.0389      1.0180     0.98789     0.95018     0.90658    
 0.85907     0.80973     0.76044     0.71284     0.66839     0.62832     0.59354     0.56460     0.58328     0.56457    
 0.55167     0.54416     0.54167     0.54412     0.55170     0.56466     0.58331     0.60796     0.63869     0.67513    
 0.71654     0.76193     0.81002     0.85917     0.90756     0.95325     0.99424      1.0285      1.0542      1.0702    
  1.0757      1.0703      1.0542      1.0284     0.99420     0.95326     0.90751     0.85904     0.80992     0.76189    
 0.71649     0.67507     0.63869     0.60800     0.62809     0.60795     0.59351     0.58433     0.57985     0.57980    
 0.58429     0.59361     0.60807     0.62810     0.65406     0.68592     0.72319     0.76511     0.81069     0.85848    
 0.90665     0.95329     0.99645      1.0340      1.0641      1.0849      1.0957      1.0958      1.0851      1.0641    
  1.0340     0.99646     0.95326     0.90650     0.85834     0.81071     0.76518     0.72315     0.68586     0.65407    
 0.67493     0.65405     0.63866     0.62835     0.62249     0.62052     0.62239     0.62837     0.63879     0.65412    
 0.67492     0.70152     0.73373     0.77099     0.81260     0.85747     0.90398     0.95022     0.99425      1.0341    
  1.0675      1.0927      1.1083      1.1137      1.1085      1.0927      1.0674      1.0341     0.99430     0.95015    
 0.90385     0.85748     0.81273     0.77100     0.73359     0.70144     0.72230     0.70148     0.68586     0.67507    
 0.66848     0.66531     0.66523     0.66840     0.67516     0.68596     0.70145     0.72231     0.74873     0.78040    
 0.81679     0.85719     0.90037     0.94457     0.98791      1.0285      1.0642      1.0928      1.1127      1.1230    
  1.1231      1.1128      1.0927      1.0641      1.0286     0.98799     0.94450     0.90031     0.85729     0.81685    
 0.78023     0.74854     0.76856     0.74865     0.73364     0.72313     0.71651     0.71294     0.71174     0.71284    
 0.71655     0.72328     0.73365     0.74853     0.76860     0.79391     0.82411     0.85874     0.89699     0.93745    
 0.97836      1.0179      1.0543      1.0851      1.1085      1.1231      1.1281      1.1231      1.1084      1.0849    
  1.0542      1.0181     0.97841     0.93736     0.89699     0.85882     0.82402     0.79370     0.81196     0.79381    
 0.78033     0.77097     0.76512     0.76194     0.76051     0.76044     0.76190     0.76528     0.77111     0.78026    
 0.79371     0.81205     0.83525     0.86305     0.89501     0.93014     0.96694      1.0037      1.0389      1.0703    
  1.0958      1.1138      1.1231      1.1232      1.1138      1.0957      1.0702      1.0390      1.0039     0.96687    
 0.93005     0.89507     0.86310     0.83513     0.85072     0.83517     0.82409     0.81682     0.81264     0.81070    
 0.80999     0.80976     0.80991     0.81077     0.81286     0.81692     0.82403     0.83518     0.85082     0.87098    
 0.89553     0.92391     0.95503     0.98741      1.0195      1.0496      1.0757      1.0957      1.1084      1.1128    
  1.1085      1.0958      1.0756      1.0497      1.0197     0.98741     0.95491     0.92391     0.89565     0.87100    
 0.88309     0.87096     0.86309     0.85880     0.85724     0.85747     0.85844     0.85913     0.85905     0.85837    
 0.85759     0.85741     0.85886     0.86313     0.87109     0.88316     0.89950     0.91999     0.94401     0.97042    
 0.99789      1.0249      1.0497      1.0702      1.0849      1.0926      1.0927      1.0851      1.0702      1.0497    
  1.0250     0.99796     0.97037     0.94398     0.92011     0.89960     0.90749     0.89953     0.89559     0.89507    
 0.89701     0.90035     0.90395     0.90664     0.90756     0.90653     0.90392     0.90043     0.89707     0.89510    
 0.89571     0.89969     0.90751     0.91940     0.93522     0.95430     0.97559     0.99788      1.0196      1.0390    
  1.0543      1.0640      1.0674      1.0641      1.0542      1.0389      1.0196     0.99798     0.97564     0.95428    
 0.93529     0.91952     0.92266     0.91945     0.92005     0.92394     0.93013     0.93742     0.94456     0.95025    
 0.95336     0.95332     0.95020     0.94460     0.93745     0.93009     0.92395     0.92019     0.91958     0.92264    
 0.92965     0.94041     0.95426     0.97030     0.98736      1.0039      1.0181      1.0285      1.0340      1.0340    
  1.0285      1.0180      1.0038     0.98746     0.97044     0.95431     0.94043     0.92972     0.92781     0.92970    
 0.93525     0.94402     0.95502     0.96694     0.97840     0.98798     0.99433     0.99654     0.99433     0.98805    
 0.97850     0.96694     0.95495     0.94404     0.93537     0.92975     0.92778     0.92970     0.93529     0.94394    
 0.95484     0.96685     0.97843     0.98799     0.99428     0.99651     0.99431     0.98795     0.97838     0.96694    
 0.95503     0.94404     0.93527     0.92971     0.92268     0.92973     0.94043     0.95431     0.97045     0.98748    
  1.0039      1.0180      1.0285      1.0341      1.0341      1.0286      1.0182      1.0040     0.98747     0.97042    
 0.95437     0.94049     0.92970     0.92264     0.91953     0.92012     0.92386     0.93000     0.93737     0.94454    
 0.95017     0.95330     0.95335     0.95025     0.94456     0.93743     0.93015     0.92397     0.92009     0.91948    
 0.90753     0.91954     0.93530     0.95430     0.97566     0.99801      1.0197      1.0390      1.0543      1.0641    
  1.0675      1.0640      1.0543      1.0391      1.0197     0.99800     0.97571     0.95440     0.93530     0.91944    
 0.90751     0.89965     0.89564     0.89502     0.89699     0.90037     0.90388     0.90651     0.90756     0.90665    
 0.90397     0.90038     0.89705     0.89512     0.89564     0.89958     0.88315     0.89966     0.92015     0.94401    
 0.97040     0.99800      1.0250      1.0497      1.0703      1.0851      1.0928      1.0927      1.0850      1.0703    
  1.0498      1.0250     0.99801     0.97054     0.94411     0.92007     0.89954     0.88316     0.87105     0.86307    
 0.85880     0.85735     0.85755     0.85835     0.85905     0.85914     0.85847     0.85752     0.85729     0.85887    
 0.86316     0.87103     0.85080     0.87107     0.89571     0.92396     0.95495     0.98746      1.0197      1.0497    
  1.0757      1.0958      1.1086      1.1129      1.1084      1.0958      1.0757      1.0497      1.0196     0.98752    
 0.95513     0.92400     0.89559     0.87101     0.85082     0.83516     0.82399     0.81687     0.81282     0.81075    
 0.80990     0.80978     0.81003     0.81075     0.81270     0.81689     0.82417     0.83526     0.81205     0.83521    
 0.86317     0.89513     0.93010     0.96693      1.0039      1.0390      1.0702      1.0957      1.1139      1.1233    
  1.1232      1.1138      1.0959      1.0703      1.0389      1.0038     0.96703     0.93023     0.89509     0.86311    
 0.83527     0.81205     0.79369     0.78022     0.77108     0.76526     0.76189     0.76045     0.76054     0.76198    
 0.76518     0.77104     0.78042     0.79390     0.76865     0.79380     0.82412     0.85890     0.89707     0.93743    
 0.97847      1.0182      1.0543      1.0850      1.1085      1.1232      1.1282      1.1232      1.1086      1.0852    
  1.0543      1.0180     0.97844     0.93753     0.89707     0.85880     0.82415     0.79393     0.76860     0.74852    
 0.73363     0.72326     0.71654     0.71284     0.71176     0.71298     0.71657     0.72320     0.73373     0.74874    
 0.72240     0.74864     0.78034     0.81694     0.85739     0.90040     0.94458     0.98807      1.0286      1.0641    
  1.0927      1.1128      1.1232      1.1231      1.1128      1.0929      1.0642      1.0285     0.98796     0.94463    
 0.90043     0.85725     0.81683     0.78043     0.74875     0.72231     0.70144     0.68595     0.67515     0.66840    
 0.66525     0.66534     0.66852     0.67513     0.68593     0.70157     0.67502     0.70154     0.73369     0.77110    
 0.81283     0.85758     0.90394     0.95024     0.99438      1.0341      1.0675      1.0928      1.1086      1.1138    
  1.1084      1.0927      1.0676      1.0341     0.99429     0.95025     0.90402     0.85752     0.81264     0.77102    
 0.73375     0.70153     0.67492     0.65412     0.63879     0.62837     0.62240     0.62054     0.62252     0.62840    
 0.63872     0.65413     0.62817     0.65417     0.68596     0.72326     0.76528     0.81082     0.85845     0.90660    
 0.95335     0.99653      1.0341      1.0641      1.0852      1.0959      1.0958      1.0850      1.0641      1.0341    
 0.99648     0.95331     0.90667     0.85850     0.81072     0.76514     0.72321     0.68593     0.65407     0.62810    
 0.60807     0.59361     0.58430     0.57982     0.57988     0.58437     0.59357     0.60802     0.58335     0.60809    
 0.63879     0.67517     0.71660     0.76200     0.81003     0.85915     0.90761     0.95335     0.99427      1.0285    
  1.0543      1.0704      1.0758      1.0703      1.0543      1.0285     0.99427     0.95326     0.90756     0.85918    
 0.81002     0.76194     0.71655     0.67513     0.63869     0.60796     0.58331     0.56467     0.55171     0.54413    
 0.54169     0.54420     0.55172     0.56463     0.54182     0.56468     0.59363     0.62841     0.66849     0.71295    
 0.76055     0.80984     0.85918     0.90668     0.95026     0.98796      1.0180      1.0390      1.0498      1.0498    
  1.0390      1.0181     0.98800     0.95017     0.90653     0.85908     0.80979     0.76051     0.71294     0.66851    
 0.62839     0.59353     0.56458     0.54180     0.52506     0.51413     0.50877     0.50879     0.51416     0.52506    
 0.50456     0.52508     0.55174     0.58437     0.62249     0.66533     0.71179     0.76053     0.81001     0.85850    
 0.90406     0.94466     0.97845      1.0038      1.0196      1.0250      1.0197      1.0039     0.97848     0.94461    
 0.90393     0.85837     0.80990     0.76042     0.71172     0.66532     0.62251     0.58435     0.55168     0.52503    
 0.50455     0.49014     0.48162     0.47883     0.48165     0.49016     0.47232     0.49017     0.51417     0.54420    
 0.57988     0.62058     0.66534     0.71293     0.76194     0.81076     0.85758     0.90049     0.93755     0.96701    
 0.98746     0.99793     0.99792     0.98742     0.96695     0.93747     0.90042     0.85754     0.81071     0.76185    
 0.71280     0.66522     0.62053     0.57986     0.54417     0.51413     0.49014     0.47230     0.46053     0.45470    
 0.45471     0.46055     0.44555     0.46055     0.48166     0.50880     0.54172     0.57989     0.62251     0.66852    
 0.71660     0.76522     0.81273     0.85731     0.89707     0.93019     0.95507     0.97047     0.97566     0.97039    
 0.95495     0.93008     0.89701     0.85730     0.81276     0.76522     0.71651     0.66839     0.62238     0.57980    
 0.54167     0.50877     0.48163     0.46053     0.44554     0.43660     0.43364     0.43661     0.42457     0.43661    
 0.45472     0.47884     0.50880     0.54419     0.58437     0.62844     0.67522     0.72331     0.77110     0.81686    
 0.85878     0.89504     0.92396     0.94408     0.95438     0.95436     0.94402     0.92389     0.89499     0.85873    
 0.81681     0.77106     0.72326     0.67516     0.62835     0.58428     0.54411     0.50874     0.47881     0.45470    
 0.43660     0.42456     0.41856     0.41857     0.40953     0.41857     0.43365     0.45472     0.48166     0.51416    
 0.55172     0.59360     0.63879     0.68602     0.73379     0.78042     0.82412     0.86308     0.89559     0.92008    
 0.93531     0.94048     0.93532     0.92010     0.89559     0.86302     0.82397     0.78024     0.73365     0.68594    
 0.63876     0.59357     0.55167     0.51410     0.48160     0.45468     0.43362     0.41856     0.40952     0.40651    
 0.40048     0.40652     0.41857     0.43662     0.46055     0.49017     0.52508     0.56465     0.60803     0.65411    
 0.70153     0.74873     0.79393     0.83530     0.87107     0.89958     0.91946     0.92968     0.92969     0.91950    
 0.89961     0.87103     0.83517     0.79372     0.74852     0.70140     0.65405     0.60801     0.56462     0.52503    
 0.49012     0.46051     0.43659     0.41855     0.40651     0.40048     0.40521     0.40836     0.41779     0.43351    
 0.45546     0.48351     0.51736     0.55647     0.60006     0.64706     0.69618     0.74588     0.79444     0.83998    
 0.88055     0.91434     0.93973     0.95550     0.96084     0.95548     0.93969     0.91428     0.88048     0.83989    
 0.79435     0.74578     0.69608     0.64697     0.59999     0.55641     0.51731     0.48347     0.45543     0.43349    
 0.41778     0.40835     0.40835     0.40836     0.41501     0.42833     0.44830     0.47485     0.50774     0.54657    
 0.59061     0.63885     0.69001     0.74257     0.79480     0.84482     0.89062     0.93020     0.96169     0.98359    
 0.99480     0.99476     0.98349     0.96156     0.93009     0.89059     0.84484     0.79481     0.74251     0.68990    
 0.63872     0.59050     0.54650     0.50770     0.47481     0.44828     0.42831     0.41500     0.41778     0.41428    
 0.41779     0.42833     0.44592     0.47056     0.50209     0.54018     0.58425     0.63336     0.68629     0.74149    
 0.79723     0.85159     0.90253     0.94793     0.98576      1.0142      1.0318      1.0378      1.0318      1.0141    
 0.98563     0.94784     0.90250     0.85158     0.79719     0.74140     0.68616     0.63325     0.58417     0.54014    
 0.50206     0.47053     0.44590     0.42831     0.43349     0.42612     0.42612     0.43350     0.44830     0.47056    
 0.50023     0.53709     0.58062     0.63004     0.68420     0.74165     0.80063     0.85916     0.91512     0.96633    
  1.0106      1.0458      1.0703      1.0829      1.0829      1.0704      1.0458      1.0105     0.96622     0.91499    
 0.85902     0.80051     0.74156     0.68415     0.63000     0.58059     0.53705     0.50020     0.47053     0.44827    
 0.45543     0.44386     0.44002     0.44387     0.45544     0.47484     0.50210     0.53710     0.57948     0.62853    
 0.68323     0.74222     0.80385     0.86613     0.92689     0.98380      1.0345      1.0767      1.1085      1.1282    
  1.1349      1.1283      1.1086      1.0768      1.0344     0.98365     0.92669     0.86597     0.80377     0.74221    
 0.68322     0.62850     0.57943     0.53705     0.50205     0.47481     0.48346     0.46743     0.45947     0.45946    
 0.46744     0.48349     0.50773     0.54019     0.58066     0.62858     0.68302     0.74272     0.80614     0.87140    
 0.93636     0.99859      1.0556      1.1049      1.1441      1.1714      1.1854      1.1854      1.1714      1.1441    
  1.1049      1.0556     0.99849     0.93624     0.87133     0.80612     0.74270     0.68296     0.62850     0.58060    
 0.54015     0.50769     0.51729     0.49662     0.48434     0.48026     0.48433     0.49663     0.51732     0.54652    
 0.58421     0.63007     0.68332     0.74280     0.80704     0.87430     0.94251      1.0093      1.0721      1.1281    
  1.1749      1.2101      1.2319      1.2392      1.2318      1.2100      1.1748      1.1281      1.0721      1.0093    
 0.94247     0.87426     0.80698     0.74270     0.68320     0.63000     0.58419     0.54650     0.55638     0.53104    
 0.51438     0.50611     0.50609     0.51437     0.53109     0.55643     0.59051     0.63327     0.68419     0.74229    
 0.80623     0.87436     0.94471      1.0150      1.0825      1.1447      1.1986      1.2416      1.2715      1.2868    
  1.2868      1.2714      1.2414      1.1985      1.1447      1.0826      1.0149     0.94464     0.87429     0.80614    
 0.74218     0.68412     0.63328     0.59053     0.59999     0.57010     0.54911     0.53670     0.53257     0.53666    
 0.54914     0.57020     0.60002     0.63873     0.68615     0.74157     0.80381     0.87143     0.94259      1.0150    
  1.0862      1.1533      1.2135      1.2638      1.3017      1.3253      1.3333      1.3253      1.3017      1.2637    
  1.2134      1.1533      1.0861      1.0149     0.94249     0.87140     0.80377     0.74150     0.68616     0.63878    
 0.64703     0.61296     0.58786     0.57149     0.56338     0.56333     0.57145     0.58796     0.61308     0.64704    
 0.68994     0.74140     0.80049     0.86597     0.93628      1.0094      1.0826      1.1533      1.2186      1.2754    
  1.3207      1.3522      1.3685      1.3686      1.3524      1.3207      1.2753      1.2186      1.1533      1.0825    
  1.0092     0.93631     0.86603     0.80045     0.74134     0.68996     0.69619     0.65852     0.62973     0.60970    
 0.59793     0.59399     0.59783     0.60971     0.62987     0.65859     0.69617     0.74260     0.79723     0.85901    
 0.92667     0.99848      1.0721      1.1447      1.2135      1.2754      1.3272      1.3662      1.3905      1.3988    
  1.3906      1.3663      1.3272      1.2754      1.2136      1.1447      1.0719     0.99848     0.92680     0.85902    
 0.79709     0.74251     0.74587     0.70542     0.67359     0.65037     0.63537     0.62797     0.62788     0.63529    
 0.65047     0.67369     0.70538     0.74586     0.79491     0.85166     0.91501     0.98363      1.0555      1.1281    
  1.1985      1.2638      1.3208      1.3663      1.3980      1.4143      1.4144      1.3981      1.3662      1.3207    
  1.2639      1.1986      1.1280      1.0555     0.98373     0.91508     0.85150     0.79472     0.79435     0.75207    
 0.71806     0.69234     0.67466     0.66436     0.66090     0.66425     0.67469     0.69250     0.71806     0.75195    
 0.79439     0.84491     0.90257     0.96626      1.0344      1.1049      1.1748      1.2414      1.3017      1.3524    
  1.3906      1.4144      1.4225      1.4144      1.3905      1.3522      1.3017      1.2416      1.1748      1.1048    
  1.0344     0.96635     0.90249     0.84470     0.83980     0.79675     0.76157     0.73424     0.71459     0.70206    
 0.69592     0.69584     0.70202     0.71476     0.73439     0.76149     0.79664     0.83989     0.89061     0.94788    
  1.0105      1.0768      1.1441      1.2099      1.2713      1.3253      1.3686      1.3988      1.4144      1.4145    
  1.3989      1.3684      1.3252      1.2715      1.2101      1.1441      1.0767      1.0106     0.94794     0.89049    
 0.88035     0.83766     0.80239     0.77451     0.75379     0.73980     0.73176     0.72907     0.73167     0.73987    
 0.75402     0.77460     0.80233     0.83767     0.88046     0.93007     0.98563      1.0458      1.1086      1.1714    
  1.2318      1.2867      1.3332      1.3685      1.3905      1.3981      1.3907      1.3685      1.3332      1.2868    
  1.2319      1.1714      1.1084      1.0458     0.98576     0.93009     0.91420     0.87306     0.83880     0.81144    
 0.79071     0.77618     0.76712     0.76274     0.76266     0.76705     0.77629     0.79088     0.81149     0.83883    
 0.87318     0.91427     0.96152      1.0140      1.0703      1.1282      1.1854      1.2392      1.2868      1.3252    
  1.3522      1.3662      1.3663      1.3524      1.3252      1.2868      1.2393      1.1855      1.1282      1.0703    
  1.0142     0.96164     0.93969     0.90130     0.86915     0.84338     0.82370     0.80964     0.80052     0.79546    
 0.79378     0.79535     0.80050     0.80973     0.82376     0.84340     0.86926     0.90146     0.93971     0.98345    
  1.0317      1.0829      1.1349      1.1854      1.2319      1.2715      1.3017      1.3206      1.3271      1.3207    
  1.3017      1.2714      1.2319      1.1855      1.1349      1.0829      1.0318     0.98358     0.95553     0.92100    
 0.89200     0.86882     0.85121     0.83865     0.83044     0.82570     0.82353     0.82349     0.82565     0.83048    
 0.83869     0.85117     0.86883     0.89213     0.92112     0.95551     0.99474      1.0377      1.0828      1.1281    
  1.1714      1.2101      1.2416      1.2638      1.2753      1.2754      1.2638      1.2415      1.2100      1.1715    
  1.1283      1.0829      1.0377     0.99482     0.96091     0.93112     0.90620     0.88651     0.87189     0.86178    
 0.85544     0.85198     0.85038     0.84991     0.85036     0.85204     0.85555     0.86178     0.87182     0.88653    
 0.90631     0.93117     0.96087     0.99479      1.0318      1.0702      1.1084      1.1440      1.1749      1.1986    
  1.2135      1.2187      1.2136      1.1985      1.1748      1.1441      1.1086      1.0703      1.0318     0.99480    
 0.95555     0.93116     0.91104     0.89558     0.88472     0.87789     0.87429     0.87299     0.87293     0.87314    
 0.87312     0.87295     0.87312     0.87440     0.87787     0.88468     0.89564     0.91110     0.93112     0.95551    
 0.98359      1.0142      1.0457      1.0766      1.1048      1.1281      1.1447      1.1534      1.1534      1.1447    
  1.1281      1.1048      1.0768      1.0459      1.0141     0.98354     0.93973     0.92109     0.90625     0.89557    
 0.88904     0.88614     0.88601     0.88766     0.89002     0.89193     0.89259     0.89184     0.89002     0.88778    
 0.88608     0.88613     0.88909     0.89567     0.90625     0.92099     0.93971     0.96168     0.98575      1.0106    
  1.0344      1.0555      1.0720      1.0825      1.0862      1.0826      1.0721      1.0555      1.0345      1.0107    
 0.98575     0.96161     0.91427     0.90143     0.89210     0.88650     0.88467     0.88613     0.88999     0.89519    
 0.90065     0.90516     0.90761     0.90750     0.90499     0.90064     0.89525     0.88998     0.88614     0.88480    
 0.88660     0.89202     0.90131     0.91426     0.93014     0.94791     0.96633     0.98378     0.99855      1.0092    
  1.0149      1.0150      1.0094     0.99853     0.98373     0.96640     0.94800     0.93013     0.88044     0.87317    
 0.86927     0.86884     0.87183     0.87787     0.88605     0.89520     0.90421     0.91191     0.91707     0.91878    
 0.91690     0.91183     0.90426     0.89518     0.88597     0.87792     0.87200     0.86888     0.86915     0.87310    
 0.88044     0.89051     0.90246     0.91510     0.92689     0.93634     0.94248     0.94469     0.94260     0.93635    
 0.92678     0.91512     0.90264     0.89062     0.83989     0.83770     0.83888     0.84344     0.85119     0.86177    
 0.87437     0.88772     0.90059     0.91182     0.92021     0.92464     0.92457     0.92015     0.91192     0.90066    
 0.88762     0.87427     0.86187     0.85131     0.84340     0.83882     0.83775     0.83988     0.84469     0.85148    
 0.85910     0.86611     0.87140     0.87430     0.87438     0.87148     0.86604     0.85907     0.85168     0.84491    
 0.79444     0.79673     0.80242     0.81154     0.82376     0.83866     0.85552     0.87311     0.89002     0.90501    
 0.91692     0.92458     0.92717     0.92453     0.91701     0.90518     0.89002     0.87296     0.85548     0.83876    
 0.82376     0.81144     0.80245     0.79686     0.79439     0.79470     0.79712     0.80055     0.80381     0.80614    
 0.80706     0.80627     0.80385     0.80051     0.79723     0.79492     0.74596     0.75206     0.76158     0.77463    
 0.79086     0.80970     0.83047     0.85206     0.87301     0.89191     0.90754     0.91875     0.92454     0.92448    
 0.91870     0.90765     0.89199     0.87292     0.85196     0.83051     0.80972     0.79072     0.77452     0.76166    
 0.75216     0.74587     0.74252     0.74142     0.74159     0.74219     0.74272     0.74281     0.74231     0.74157    
 0.74141     0.74265     0.69627     0.70547     0.71811     0.73439     0.75399     0.77628     0.80052     0.82569    
 0.85042     0.87318     0.89265     0.90762     0.91701     0.92012     0.91686     0.90755     0.89269     0.87317    
 0.85033     0.82570     0.80059     0.77621     0.75380     0.73430     0.71816     0.70547     0.69618     0.69000    
 0.68625     0.68416     0.68321     0.68301     0.68333     0.68420     0.68619     0.69002     0.64711     0.65864    
 0.67370     0.69248     0.71476     0.73991     0.76713     0.79543     0.82352     0.84990     0.87313     0.89194    
 0.90518     0.91195     0.91186     0.90504     0.89191     0.87314     0.84985     0.82349     0.79549     0.76717    
 0.73981     0.71461     0.69241     0.67366     0.65854     0.64705     0.63884     0.63334     0.63002     0.62852    
 0.62858     0.63009     0.63331     0.63880     0.60006     0.61309     0.62987     0.65047     0.67474     0.70212    
 0.73179     0.76277     0.79383     0.82352     0.85032     0.87288     0.89002     0.90072     0.90432     0.90066    
 0.89002     0.87294     0.85031     0.82343     0.79378     0.76279     0.73179     0.70206     0.67469     0.65043    
 0.62977     0.61297     0.60002     0.59059     0.58423     0.58061     0.57948     0.58067     0.58425     0.59056    
 0.55645     0.57021     0.58798     0.60976     0.63539     0.66438     0.69595     0.72914     0.76279     0.79550    
 0.82571     0.85196     0.87297     0.88766     0.89522     0.89523     0.88772     0.87307     0.85200     0.82562    
 0.79535     0.76269     0.72909     0.69591     0.66437     0.63540     0.60974     0.58788     0.57012     0.55643    
 0.54654     0.54017     0.53708     0.53711     0.54021     0.54654     0.51734     0.53111     0.54918     0.57153    
 0.59794     0.62799     0.66096     0.69593     0.73177     0.76718     0.80063     0.83055     0.85550     0.87428    
 0.88595     0.88992     0.88599     0.87434     0.85553     0.83049     0.80050     0.76705     0.73166     0.69582    
 0.66089     0.62797     0.59796     0.57150     0.54912     0.53106     0.51732     0.50772     0.50208     0.50023    
 0.50211     0.50775     0.48351     0.49666     0.51442     0.53674     0.56341     0.59405     0.62799     0.66436    
 0.70207     0.73986     0.77629     0.80979     0.83878     0.86185     0.87787     0.88607     0.88606     0.87783    
 0.86179     0.83871     0.80972     0.77625     0.73981     0.70197     0.66422     0.62787     0.59399     0.56339    