   6   6   0   0
  0.2185851E+02  0.3190316E-09  0.3190316E-09  0.1487900E-08  0.5000000E-15
  1.000000000000000E-004
  CAR 
 unknown system                          
      8.60509417    -12.92952834  301      3.30219338      1.00000000
    -12.930  0.0000E+00  0.0000E+00
    -12.858  0.0000E+00  0.0000E+00
    -12.786  0.0000E+00  0.0000E+00
    -12.714  0.0000E+00  0.0000E+00
    -12.642  0.0000E+00  0.0000E+00
    -12.571  0.0000E+00  0.0000E+00
    -12.499  0.0000E+00  0.0000E+00
    -12.427  0.0000E+00  0.0000E+00
    -12.355  0.0000E+00  0.0000E+00
    -12.283  0.0000E+00  0.0000E+00
    -12.212  0.0000E+00  0.0000E+00
    -12.140  0.0000E+00  0.0000E+00
    -12.068  0.0000E+00  0.0000E+00
    -11.996  0.0000E+00  0.0000E+00
    -11.925  0.0000E+00  0.0000E+00
    -11.853  0.0000E+00  0.0000E+00
    -11.781  0.0000E+00  0.0000E+00
    -11.709  0.0000E+00  0.0000E+00
    -11.637  0.0000E+00  0.0000E+00
    -11.566  0.0000E+00  0.0000E+00
    -11.494  0.0000E+00  0.0000E+00
    -11.422  0.0000E+00  0.0000E+00
    -11.350  0.0000E+00  0.0000E+00
    -11.279  0.0000E+00  0.0000E+00
    -11.207  0.0000E+00  0.0000E+00
    -11.135  0.0000E+00  0.0000E+00
    -11.063  0.0000E+00  0.0000E+00
    -10.991  0.0000E+00  0.0000E+00
    -10.920  0.2134E-01  0.7042E-04
    -10.848  0.5907E+00  0.2146E-01
    -10.776  0.1178E+01  0.8493E-01
    -10.704  0.1270E+01  0.1879E+00
    -10.633  0.1023E+01  0.2601E+00
    -10.561  0.1089E+01  0.3359E+00
    -10.489  0.1156E+01  0.4165E+00
    -10.417  0.1222E+01  0.5018E+00
    -10.345  0.1289E+01  0.5920E+00
    -10.274  0.1325E+01  0.6863E+00
    -10.202  0.1337E+01  0.7818E+00
    -10.130  0.1354E+01  0.8783E+00
    -10.058  0.1409E+01  0.9774E+00
     -9.986  0.1465E+01  0.1081E+01
     -9.915  0.1520E+01  0.1188E+01
     -9.843  0.1576E+01  0.1299E+01
     -9.771  0.1632E+01  0.1414E+01
     -9.699  0.2146E+01  0.1538E+01
     -9.628  0.4997E+01  0.1795E+01
     -9.556  0.4405E+01  0.2117E+01
     -9.484  0.4902E+01  0.2451E+01
     -9.412  0.5433E+01  0.2822E+01
     -9.340  0.5796E+01  0.3225E+01
     -9.269  0.6358E+01  0.3661E+01
     -9.197  0.6929E+01  0.4137E+01
     -9.125  0.8426E+01  0.4900E+01
     -9.053  0.8372E+01  0.5506E+01
     -8.982  0.8580E+01  0.6110E+01
     -8.910  0.7644E+01  0.6774E+01
     -8.838  0.7069E+01  0.7498E+01
     -8.766  0.3800E+01  0.7888E+01
     -8.694  0.0000E+00  0.8000E+01
     -8.623  0.0000E+00  0.8000E+01
     -8.551  0.0000E+00  0.8000E+01
     -8.479  0.0000E+00  0.8000E+01
     -8.407  0.0000E+00  0.8000E+01
     -8.335  0.0000E+00  0.8000E+01
     -8.264  0.0000E+00  0.8000E+01
     -8.192  0.0000E+00  0.8000E+01
     -8.120  0.0000E+00  0.8000E+01
     -8.048  0.0000E+00  0.8000E+01
     -7.977  0.0000E+00  0.8000E+01
     -7.905  0.0000E+00  0.8000E+01
     -7.833  0.0000E+00  0.8000E+01
     -7.761  0.0000E+00  0.8000E+01
     -7.689  0.0000E+00  0.8000E+01
     -7.618  0.0000E+00  0.8000E+01
     -7.546  0.0000E+00  0.8000E+01
     -7.474  0.0000E+00  0.8000E+01
     -7.402  0.0000E+00  0.8000E+01
     -7.331  0.0000E+00  0.8000E+01
     -7.259  0.0000E+00  0.8000E+01
     -7.187  0.0000E+00  0.8000E+01
     -7.115  0.0000E+00  0.8000E+01
     -7.043  0.0000E+00  0.8000E+01
     -6.972  0.0000E+00  0.8000E+01
     -6.900  0.0000E+00  0.8000E+01
     -6.828  0.0000E+00  0.8000E+01
     -6.756  0.0000E+00  0.8000E+01
     -6.684  0.0000E+00  0.8000E+01
     -6.613  0.0000E+00  0.8000E+01
     -6.541  0.0000E+00  0.8000E+01
     -6.469  0.0000E+00  0.8000E+01
     -6.397  0.0000E+00  0.8000E+01
     -6.326  0.0000E+00  0.8000E+01
     -6.254  0.0000E+00  0.8000E+01
     -6.182  0.0000E+00  0.8000E+01
     -6.110  0.0000E+00  0.8000E+01
     -6.038  0.0000E+00  0.8000E+01
     -5.967  0.0000E+00  0.8000E+01
     -5.895  0.0000E+00  0.8000E+01
     -5.823  0.0000E+00  0.8000E+01
     -5.751  0.0000E+00  0.8000E+01
     -5.680  0.0000E+00  0.8000E+01
     -5.608  0.0000E+00  0.8000E+01
     -5.536  0.0000E+00  0.8000E+01
     -5.464  0.0000E+00  0.8000E+01
     -5.392  0.0000E+00  0.8000E+01
     -5.321  0.0000E+00  0.8000E+01
     -5.249  0.0000E+00  0.8000E+01
     -5.177  0.0000E+00  0.8000E+01
     -5.105  0.0000E+00  0.8000E+01
     -5.034  0.0000E+00  0.8000E+01
     -4.962  0.0000E+00  0.8000E+01
     -4.890  0.0000E+00  0.8000E+01
     -4.818  0.0000E+00  0.8000E+01
     -4.746  0.0000E+00  0.8000E+01
     -4.675  0.0000E+00  0.8000E+01
     -4.603  0.0000E+00  0.8000E+01
     -4.531  0.0000E+00  0.8000E+01
     -4.459  0.0000E+00  0.8000E+01
     -4.387  0.0000E+00  0.8000E+01
     -4.316  0.0000E+00  0.8000E+01
     -4.244  0.0000E+00  0.8000E+01
     -4.172  0.0000E+00  0.8000E+01
     -4.100  0.0000E+00  0.8000E+01
     -4.029  0.0000E+00  0.8000E+01
     -3.957  0.0000E+00  0.8000E+01
     -3.885  0.0000E+00  0.8000E+01
     -3.813  0.0000E+00  0.8000E+01
     -3.741  0.0000E+00  0.8000E+01
     -3.670  0.0000E+00  0.8000E+01
     -3.598  0.0000E+00  0.8000E+01
     -3.526  0.0000E+00  0.8000E+01
     -3.454  0.0000E+00  0.8000E+01
     -3.383  0.0000E+00  0.8000E+01
     -3.311  0.0000E+00  0.8000E+01
     -3.239  0.0000E+00  0.8000E+01
     -3.167  0.0000E+00  0.8000E+01
     -3.095  0.0000E+00  0.8000E+01
     -3.024  0.0000E+00  0.8000E+01
     -2.952  0.0000E+00  0.8000E+01
     -2.880  0.0000E+00  0.8000E+01
     -2.808  0.0000E+00  0.8000E+01
     -2.736  0.0000E+00  0.8000E+01
     -2.665  0.0000E+00  0.8000E+01
     -2.593  0.1005E+00  0.8001E+01
     -2.521  0.9826E+00  0.8039E+01
     -2.449  0.1983E+01  0.8144E+01
     -2.378  0.3184E+01  0.8329E+01
     -2.306  0.4979E+01  0.8610E+01
     -2.234  0.5521E+01  0.8991E+01
     -2.162  0.5978E+01  0.9404E+01
     -2.090  0.7531E+01  0.9978E+01
     -2.019  0.6404E+01  0.1048E+02
     -1.947  0.7640E+01  0.1091E+02
     -1.875  0.7945E+01  0.1165E+02
     -1.803  0.1815E+01  0.1198E+02
     -1.732  0.8853E+01  0.1260E+02
     -1.660  0.4310E+01  0.1306E+02
     -1.588  0.2662E+01  0.1328E+02
     -1.516  0.2431E+01  0.1346E+02
     -1.444  0.2201E+01  0.1363E+02
     -1.373  0.1971E+01  0.1378E+02
     -1.301  0.1742E+01  0.1391E+02
     -1.229  0.1671E+01  0.1403E+02
     -1.157  0.1679E+01  0.1415E+02
     -1.085  0.1687E+01  0.1427E+02
     -1.014  0.1694E+01  0.1439E+02
     -0.942  0.2147E+01  0.1452E+02
     -0.870  0.6283E+01  0.1481E+02
     -0.798  0.1177E+02  0.1545E+02
     -0.727  0.1014E+02  0.1634E+02
     -0.655  0.9811E+01  0.1704E+02
     -0.583  0.7334E+01  0.1768E+02
     -0.511  0.4084E+01  0.1809E+02
     -0.439  0.2550E+01  0.1831E+02
     -0.368  0.2313E+01  0.1848E+02
     -0.296  0.2150E+01  0.1864E+02
     -0.224  0.1988E+01  0.1879E+02
     -0.152  0.1826E+01  0.1892E+02
     -0.081  0.1863E+02  0.1956E+02
     -0.009  0.1082E+02  0.2091E+02
      0.063  0.6765E+01  0.2149E+02
      0.135  0.6746E+01  0.2194E+02
      0.207  0.4706E+01  0.2239E+02
      0.278  0.3706E+01  0.2267E+02
      0.350  0.3518E+01  0.2293E+02
      0.422  0.3329E+01  0.2318E+02
      0.494  0.4261E+01  0.2343E+02
      0.566  0.5171E+01  0.2379E+02
      0.637  0.5003E+01  0.2415E+02
      0.709  0.3475E+01  0.2446E+02
      0.781  0.1816E+01  0.2464E+02
      0.853  0.1769E+01  0.2477E+02
      0.924  0.1729E+01  0.2490E+02
      0.996  0.1696E+01  0.2502E+02
      1.068  0.1670E+01  0.2514E+02
      1.140  0.7425E+01  0.2548E+02
      1.212  0.1763E+02  0.2626E+02
      1.283  0.1674E+02  0.2754E+02
      1.355  0.7790E+01  0.2845E+02
      1.427  0.3466E+01  0.2880E+02
      1.499  0.2984E+01  0.2903E+02
      1.570  0.2902E+01  0.2924E+02
      1.642  0.2909E+01  0.2945E+02
      1.714  0.3258E+01  0.2967E+02
      1.786  0.5172E+01  0.2995E+02
      1.858  0.8323E+01  0.3046E+02
      1.929  0.5547E+01  0.3102E+02
      2.001  0.4641E+01  0.3137E+02
      2.073  0.3575E+01  0.3167E+02
      2.145  0.1959E+01  0.3187E+02
      2.216  0.1976E+01  0.3198E+02
      2.288  0.5080E+01  0.3223E+02
      2.360  0.8051E+01  0.3278E+02
      2.432  0.7306E+01  0.3332E+02
      2.504  0.6780E+01  0.3383E+02
      2.575  0.6212E+01  0.3430E+02
      2.647  0.4403E+01  0.3471E+02
      2.719  0.3873E+01  0.3501E+02
      2.791  0.3341E+01  0.3526E+02
      2.863  0.2987E+01  0.3549E+02
      2.934  0.2523E+01  0.3569E+02
      3.006  0.9728E+00  0.3587E+02
      3.078  0.8582E+00  0.3594E+02
      3.150  0.3427E+00  0.3598E+02
      3.221  0.9144E-01  0.3600E+02
      3.293  0.3766E-03  0.3600E+02
      3.365  0.0000E+00  0.3600E+02
      3.437  0.0000E+00  0.3600E+02
      3.509  0.0000E+00  0.3600E+02
      3.580  0.0000E+00  0.3600E+02
      3.652  0.0000E+00  0.3600E+02
      3.724  0.0000E+00  0.3600E+02
      3.796  0.0000E+00  0.3600E+02
      3.867  0.0000E+00  0.3600E+02
      3.939  0.0000E+00  0.3600E+02
      4.011  0.0000E+00  0.3600E+02
      4.083  0.0000E+00  0.3600E+02
      4.155  0.0000E+00  0.3600E+02
      4.226  0.0000E+00  0.3600E+02
      4.298  0.0000E+00  0.3600E+02
      4.370  0.0000E+00  0.3600E+02
      4.442  0.0000E+00  0.3600E+02
      4.514  0.0000E+00  0.3600E+02
      4.585  0.0000E+00  0.3600E+02
      4.657  0.0000E+00  0.3600E+02
      4.729  0.0000E+00  0.3600E+02
      4.801  0.0000E+00  0.3600E+02
      4.872  0.0000E+00  0.3600E+02
      4.944  0.1273E+01  0.3608E+02
      5.016  0.2403E+01  0.3620E+02
      5.088  0.6066E+01  0.3650E+02
      5.160  0.9834E+01  0.3706E+02
      5.231  0.1347E+02  0.3792E+02
      5.303  0.1204E+02  0.3920E+02
      5.375  0.1965E+01  0.3950E+02
      5.447  0.1520E+01  0.3962E+02
      5.518  0.1085E+02  0.4010E+02
      5.590  0.9496E+01  0.4090E+02
      5.662  0.6864E+01  0.4153E+02
      5.734  0.6526E+01  0.4201E+02
      5.806  0.7658E+01  0.4253E+02
      5.877  0.3628E+01  0.4286E+02
      5.949  0.2649E+01  0.4308E+02
      6.021  0.2283E+01  0.4326E+02
      6.093  0.2110E+01  0.4342E+02
      6.165  0.2450E+01  0.4357E+02
      6.236  0.2236E+01  0.4374E+02
      6.308  0.1452E+01  0.4387E+02
      6.380  0.6069E+00  0.4394E+02
      6.452  0.3716E+00  0.4397E+02
      6.523  0.1755E+00  0.4399E+02
      6.595  0.1857E-01  0.4400E+02
      6.667  0.0000E+00  0.4400E+02
      6.739  0.0000E+00  0.4400E+02
      6.811  0.0000E+00  0.4400E+02
      6.882  0.0000E+00  0.4400E+02
      6.954  0.0000E+00  0.4400E+02
      7.026  0.0000E+00  0.4400E+02
      7.098  0.0000E+00  0.4400E+02
      7.169  0.0000E+00  0.4400E+02
      7.241  0.0000E+00  0.4400E+02
      7.313  0.0000E+00  0.4400E+02
      7.385  0.0000E+00  0.4400E+02
      7.457  0.0000E+00  0.4400E+02
      7.528  0.0000E+00  0.4400E+02
      7.600  0.0000E+00  0.4400E+02
      7.672  0.0000E+00  0.4400E+02
      7.744  0.0000E+00  0.4400E+02
      7.815  0.0000E+00  0.4400E+02
      7.887  0.0000E+00  0.4400E+02
      7.959  0.0000E+00  0.4400E+02
      8.031  0.0000E+00  0.4400E+02
      8.103  0.0000E+00  0.4400E+02
      8.174  0.0000E+00  0.4400E+02
      8.246  0.0000E+00  0.4400E+02
      8.318  0.0000E+00  0.4400E+02
      8.390  0.0000E+00  0.4400E+02
      8.462  0.0000E+00  0.4400E+02
      8.533  0.0000E+00  0.4400E+02
      8.605  0.0000E+00  0.4400E+02
