perl: warning: Setting locale failed.
perl: warning: Please check that your locale settings:
	LANGUAGE = (unset),
	LC_ALL = (unset),
	LC_CTYPE = "UTF-8",
	LANG = "en_US.iso885915"
    are supported and installed on your system.
perl: warning: Falling back to the standard locale ("C").
Starting job 28525015 ("jobname") on c15-23 at Thu Nov 7 21:11:37 CET 2019
 running on    4 total cores
 distrk:  each k-point on    4 cores,    1 groups
 distr:  one band on    2 cores,    2 groups
 using from now: INCAR     
 vasp.5.4.4.18Apr17-6-g9f103f2a35 (build Jun 30 2017 11:15:00) complex          
  
 POSCAR found type information on POSCAR  Mo S 
 POSCAR found :  2 types and       6 ions
 scaLAPACK will be used
 LDA part: xc-table for Pade appr. of Perdew
 POSCAR, INCAR and KPOINTS ok, starting setup
 FFT: planning ...
 WAVECAR not read
 WARNING: random wavefunctions but no delay for mixing, default for NELMDL
 entering main loop
       N       E                     dE             d eps       ncg     rms          rms(c)
DAV:   1     0.225020929543E+03    0.22502E+03   -0.16421E+04   880   0.148E+03
DAV:   2    -0.255249996454E+02   -0.25055E+03   -0.24387E+03  1166   0.288E+02
DAV:   3    -0.462171175096E+02   -0.20692E+02   -0.20582E+02  1166   0.804E+01
DAV:   4    -0.468072174563E+02   -0.59010E+00   -0.58890E+00  1228   0.146E+01
DAV:   5    -0.468229161160E+02   -0.15699E-01   -0.15693E-01  1218   0.240E+00    0.974E+00
RMM:   6    -0.444348480492E+02    0.23881E+01   -0.24190E+01   990   0.197E+01    0.336E+00
RMM:   7    -0.436979492796E+02    0.73690E+00   -0.19240E+00   971   0.563E+00    0.179E+00
RMM:   8    -0.436340323559E+02    0.63917E-01   -0.89291E-01  1006   0.336E+00    0.830E-01
RMM:   9    -0.436247770786E+02    0.92553E-02   -0.29596E-01  1037   0.229E+00    0.583E-01
RMM:  10    -0.436080596159E+02    0.16717E-01   -0.68572E-02  1053   0.113E+00    0.811E-02
RMM:  11    -0.436081234171E+02   -0.63801E-04   -0.33991E-03  1108   0.236E-01    0.311E-02
RMM:  12    -0.436082780769E+02   -0.15466E-03   -0.57295E-04  1129   0.110E-01    0.228E-02
RMM:  13    -0.436082867320E+02   -0.86551E-05   -0.39530E-04  1151   0.791E-02    0.209E-02
RMM:  14    -0.436082690711E+02    0.17661E-04   -0.77442E-05   904   0.380E-02    0.286E-03
RMM:  15    -0.436082694618E+02   -0.39078E-06   -0.10769E-05   684   0.149E-02
 Error reading item 'IVDW' from file INCAR
   1 F= -.43608269E+02 E0= -.43608269E+02  d E =0.000000E+00

Currently Loaded Modulefiles:
  1) Anaconda3/5.1.0       3) vesta/3.3.8           5) intel/2016.1
  2) gnuplot/5.0.4         4) imagemagick/6.7.9-0   6) vasp/5.4.1.Feb16

Job script resource usage:
       JobID  MaxVMSize     MaxRSS 
------------ ---------- ---------- 
28525015.ba+    216888K      2452K 

Job step resource usage:
       JobID    JobName  AllocCPUS  MaxVMSize     MaxRSS    Elapsed ExitCode 
------------ ---------- ---------- ---------- ---------- ---------- -------- 
28525015        jobname          4                         00:00:16      0:0 
28525015.0    pmi_proxy          1    279832K       539K   00:00:14      0:0 

Job 28525015 ("jobname") completed on c15-23 at Thu Nov 7 21:11:51 CET 2019
