<?xml version="1.0" encoding="ISO-8859-1"?>
<modeling>
 <generator>
  <i name="program" type="string">vasp </i>
  <i name="version" type="string">5.4.4.18Apr17-6-g9f103f2a35  </i>
  <i name="subversion" type="string">(build Jun 30 2017 11:15:00) complex            parallel </i>
  <i name="platform" type="string">STALLO_VASP_5.4.4 </i>
  <i name="date" type="string">2019 11 08 </i>
  <i name="time" type="string">11:37:20 </i>
 </generator>
 <incar>
  <i type="string" name="PREC">normal    ! low/normal/accurate</i>
  <i type="string" name="ALGO"> Fast      ! Algorithm for electronic re</i>
  <i type="int" name="ISPIN">     1</i>
  <i type="int" name="NELMIN">     4</i>
  <i name="EDIFF">      0.00001000</i>
  <i type="int" name="NSW">     0</i>
  <i name="ENCUT">    550.00000000</i>
  <i type="logical" name="LREAL"> F  </i>
  <i type="int" name="ISMEAR">    -5</i>
  <i name="SIGMA">      0.20000000</i>
  <i type="logical" name="LWAVE"> F  </i>
  <v type="int" name="KPOINT_BSE">    -1     0     0     0</v>
 </incar>
 <structure name="primitive_cell" >
  <crystal>
   <varray name="basis" >
    <v>       3.19031573       0.00000000       0.00000000 </v>
    <v>      -1.59515786       2.76289447       0.00000000 </v>
    <v>       0.00000000       0.00000000      14.87900430 </v>
   </varray>
   <i name="volume">    131.15106795 </i>
   <varray name="rec_basis" >
    <v>       0.31344860       0.18096963       0.00000000 </v>
    <v>       0.00000000       0.36193927       0.00000000 </v>
    <v>       0.00000000       0.00000000       0.06720880 </v>
   </varray>
  </crystal>
  <varray name="positions" >
   <v>       0.33333300      -0.33333300       0.25000000 </v>
   <v>      -0.33333400       0.33333300       0.35517400 </v>
   <v>      -0.33333300       0.33333300       0.14482600 </v>
   <v>       0.33333300      -0.33333300      -0.14482600 </v>
   <v>       0.33333400      -0.33333300      -0.35517400 </v>
   <v>      -0.33333300       0.33333300      -0.25000000 </v>
  </varray>
 </structure>
 <varray name="primitive_index" >
  <v type="int" >        1 </v>
  <v type="int" >        5 </v>
  <v type="int" >        4 </v>
  <v type="int" >        3 </v>
  <v type="int" >        6 </v>
  <v type="int" >        2 </v>
 </varray>
 <kpoints>
  <generation param="Gamma">
   <v type="int" name="divisions">       8        8        2 </v>
   <v name="usershift">      0.00000000       0.00000000       0.00000000 </v>
   <v name="genvec1">      0.12500000       0.00000000       0.00000000 </v>
   <v name="genvec2">      0.00000000       0.12500000       0.00000000 </v>
   <v name="genvec3">      0.00000000       0.00000000       0.50000000 </v>
   <v name="shift">      0.00000000       0.00000000       0.00000000 </v>
  </generation>
  <varray name="kpointlist" >
   <v>       0.00000000       0.00000000       0.00000000 </v>
   <v>       0.12500000      -0.00000000       0.00000000 </v>
   <v>       0.25000000      -0.00000000       0.00000000 </v>
   <v>       0.37500000      -0.00000000       0.00000000 </v>
   <v>       0.50000000      -0.00000000       0.00000000 </v>
   <v>       0.12500000       0.12500000       0.00000000 </v>
   <v>       0.25000000       0.12500000       0.00000000 </v>
   <v>       0.37500000       0.12500000       0.00000000 </v>
   <v>       0.25000000       0.25000000       0.00000000 </v>
   <v>       0.37500000       0.25000000       0.00000000 </v>
   <v>       0.00000000       0.00000000       0.50000000 </v>
   <v>       0.12500000      -0.00000000       0.50000000 </v>
   <v>       0.25000000      -0.00000000       0.50000000 </v>
   <v>       0.37500000      -0.00000000       0.50000000 </v>
   <v>       0.50000000      -0.00000000       0.50000000 </v>
   <v>       0.12500000       0.12500000       0.50000000 </v>
   <v>       0.25000000       0.12500000       0.50000000 </v>
   <v>       0.37500000       0.12500000       0.50000000 </v>
   <v>       0.25000000       0.25000000       0.50000000 </v>
   <v>       0.37500000       0.25000000       0.50000000 </v>
  </varray>
  <varray name="weights" >
   <v>       0.00781250 </v>
   <v>       0.04687500 </v>
   <v>       0.04687500 </v>
   <v>       0.04687500 </v>
   <v>       0.02343750 </v>
   <v>       0.04687500 </v>
   <v>       0.09375000 </v>
   <v>       0.09375000 </v>
   <v>       0.04687500 </v>
   <v>       0.04687500 </v>
   <v>       0.00781250 </v>
   <v>       0.04687500 </v>
   <v>       0.04687500 </v>
   <v>       0.04687500 </v>
   <v>       0.02343750 </v>
   <v>       0.04687500 </v>
   <v>       0.09375000 </v>
   <v>       0.09375000 </v>
   <v>       0.04687500 </v>
   <v>       0.04687500 </v>
  </varray>
  <varray name="tetrahedronlist"  type="int" >
   <v type="int" >        8        2        2        6       12 </v>
   <v type="int" >        8        1        2        2       12 </v>
   <v type="int" >        4        1        2       11       12 </v>
   <v type="int" >        4        2        6       12       16 </v>
   <v type="int" >        8        2       12       12       16 </v>
   <v type="int" >        8        2       11       12       12 </v>
   <v type="int" >        8        3        6        7       16 </v>
   <v type="int" >        8        2        3        6       16 </v>
   <v type="int" >        4        2        3       12       16 </v>
   <v type="int" >        4        3        7       16       17 </v>
   <v type="int" >        8        3       13       16       17 </v>
   <v type="int" >        8        3       12       13       16 </v>
   <v type="int" >        8        4        7        8       17 </v>
   <v type="int" >        8        3        4        7       17 </v>
   <v type="int" >        4        3        4       13       17 </v>
   <v type="int" >        4        4        8       17       18 </v>
   <v type="int" >        8        4       14       17       18 </v>
   <v type="int" >        8        4       13       14       17 </v>
   <v type="int" >        8        5        8        8       18 </v>
   <v type="int" >        8        4        5        8       18 </v>
   <v type="int" >        4        4        5       14       18 </v>
   <v type="int" >        4        5        8       18       18 </v>
   <v type="int" >        4        5       15       18       18 </v>
   <v type="int" >        8        5       14       15       18 </v>
   <v type="int" >        8        4        7        8       18 </v>
   <v type="int" >        4        4        5       15       18 </v>
   <v type="int" >        4        4        7       17       18 </v>
   <v type="int" >        8        4       14       15       18 </v>
   <v type="int" >        8        3        6        7       17 </v>
   <v type="int" >        4        3        4       14       17 </v>
   <v type="int" >        4        3        6       16       17 </v>
   <v type="int" >        8        3       13       14       17 </v>
   <v type="int" >        4        2        2        6       16 </v>
   <v type="int" >        4        2        3       13       16 </v>
   <v type="int" >        4        2        2       12       16 </v>
   <v type="int" >        8        2       12       13       16 </v>
   <v type="int" >        4        1        2       12       12 </v>
   <v type="int" >        4        1       11       12       12 </v>
   <v type="int" >        8        3        6        7       13 </v>
   <v type="int" >        8        2        3        6       13 </v>
   <v type="int" >        4        2        6       12       13 </v>
   <v type="int" >        4        6        7       13       17 </v>
   <v type="int" >        8        6       13       16       17 </v>
   <v type="int" >        8        6       12       13       16 </v>
   <v type="int" >        8        7        7        9       17 </v>
   <v type="int" >        8        6        7        7       17 </v>
   <v type="int" >        4        6        7       16       17 </v>
   <v type="int" >        4        7        9       17       19 </v>
   <v type="int" >        8        7       17       17       19 </v>
   <v type="int" >        8        7       16       17       17 </v>
   <v type="int" >        8        8        9       10       19 </v>
   <v type="int" >        8        7        8        9       19 </v>
   <v type="int" >        4        7        8       17       19 </v>
   <v type="int" >        4        8       10       19       20 </v>
   <v type="int" >        8        8       18       19       20 </v>
   <v type="int" >        8        8       17       18       19 </v>
   <v type="int" >        8        8        9       10       20 </v>
   <v type="int" >        4        8        8       10       20 </v>
   <v type="int" >        4        8        8       18       20 </v>
   <v type="int" >        4        8        9       19       20 </v>
   <v type="int" >        8        8       18       18       20 </v>
   <v type="int" >        4        7        7        9       19 </v>
   <v type="int" >        4        7        8       18       19 </v>
   <v type="int" >        4        7        7       17       19 </v>
   <v type="int" >        8        7       17       18       19 </v>
   <v type="int" >        4        6        7       17       17 </v>
   <v type="int" >        4        3        6       13       17 </v>
   <v type="int" >        4        6       16       17       17 </v>
   <v type="int" >        4        2        6       13       16 </v>
   <v type="int" >        8        4        7        8       14 </v>
   <v type="int" >        8        3        4        7       14 </v>
   <v type="int" >        4        3        7       13       14 </v>
   <v type="int" >        4        7        8       14       18 </v>
   <v type="int" >        8        7       14       17       18 </v>
   <v type="int" >        8        7       13       14       17 </v>
   <v type="int" >        8        8        9       10       18 </v>
   <v type="int" >        8        7        8        9       18 </v>
   <v type="int" >        4        7        9       17       18 </v>
   <v type="int" >        4        9       10       18       20 </v>
   <v type="int" >        8        9       18       19       20 </v>
   <v type="int" >        8        9       17       18       19 </v>
   <v type="int" >        4       10       10       10       20 </v>
   <v type="int" >        8        9       10       10       20 </v>
   <v type="int" >        4        9       10       19       20 </v>
   <v type="int" >        4       10       10       20       20 </v>
   <v type="int" >        4       10       20       20       20 </v>
   <v type="int" >        8       10       19       20       20 </v>
   <v type="int" >        4        9       10       20       20 </v>
   <v type="int" >        4        8        9       18       20 </v>
   <v type="int" >        4        9       19       20       20 </v>
   <v type="int" >        4        7        9       18       19 </v>
   <v type="int" >        4        4        7       14       18 </v>
   <v type="int" >        4        3        7       14       17 </v>
   <v type="int" >        4        5        8        8       15 </v>
   <v type="int" >        8        4        5        8       15 </v>
   <v type="int" >        4        4        8       14       15 </v>
   <v type="int" >        4        8        8       15       18 </v>
   <v type="int" >        8        8       15       18       18 </v>
   <v type="int" >        8        8       14       15       18 </v>
   <v type="int" >        8        8        8       10       18 </v>
   <v type="int" >        4        8       10       18       18 </v>
   <v type="int" >        4        9       10       18       19 </v>
   <v type="int" >        8       10       18       19       20 </v>
   <v type="int" >        4       10       18       18       20 </v>
   <v type="int" >        4        9       10       10       19 </v>
   <v type="int" >        4       10       10       19       20 </v>
   <v type="int" >        4        8       10       18       19 </v>
   <v type="int" >        4        8       10       18       20 </v>
   <v type="int" >        4        5        8       15       18 </v>
   <v type="int" >        4        4        8       15       18 </v>
   <v type="int" >        8        4        5        8       14 </v>
   <v type="int" >        4        5        8       14       15 </v>
   <v type="int" >        4        7        8       14       17 </v>
   <v type="int" >        8        8       14       17       18 </v>
   <v type="int" >        8        7        8        9       17 </v>
   <v type="int" >        4        8        9       17       18 </v>
   <v type="int" >        4        7        9       17       17 </v>
   <v type="int" >        4        9       17       17       19 </v>
   <v type="int" >        4        8        9       17       19 </v>
   <v type="int" >        4        4        8       14       17 </v>
   <v type="int" >        4        5        8       14       18 </v>
   <v type="int" >        8        3        4        7       13 </v>
   <v type="int" >        4        4        7       13       14 </v>
   <v type="int" >        4        6        7       13       16 </v>
   <v type="int" >        8        7       13       16       17 </v>
   <v type="int" >        4        6        7        7       16 </v>
   <v type="int" >        4        7        7       16       17 </v>
   <v type="int" >        4        3        7       13       16 </v>
   <v type="int" >        4        4        7       13       17 </v>
   <v type="int" >        8        2        3        6       12 </v>
   <v type="int" >        4        3        6       12       13 </v>
   <v type="int" >        4        2        6       12       12 </v>
   <v type="int" >        4        6       12       12       16 </v>
   <v type="int" >        4        3        6       12       16 </v>
   <v type="int" >        4        1        2        2       11 </v>
   <v type="int" >        4        2        2       11       12 </v>
  </varray>
  <i name="volumeweight">      0.00130208 </i>
 </kpoints>
 <parameters>
  <separator name="general" >
   <i type="string" name="SYSTEM">unknown system</i>
   <i type="logical" name="LCOMPAT"> F  </i>
  </separator>
  <separator name="electronic" >
   <i type="string" name="PREC">normal</i>
   <i name="ENMAX">    550.00000000</i>
   <i name="ENAUG">    345.27800000</i>
   <i name="EDIFF">      0.00001000</i>
   <i type="int" name="IALGO">    68</i>
   <i type="int" name="IWAVPR">    10</i>
   <i type="int" name="NBANDS">    22</i>
   <i name="NELECT">     36.00000000</i>
   <i type="int" name="TURBO">     0</i>
   <i type="int" name="IRESTART">     0</i>
   <i type="int" name="NREBOOT">     0</i>
   <i type="int" name="NMIN">     0</i>
   <i name="EREF">      0.00000000</i>
   <separator name="electronic smearing" >
    <i type="int" name="ISMEAR">    -5</i>
    <i name="SIGMA">      0.20000000</i>
    <i name="KSPACING">      0.50000000</i>
    <i type="logical" name="KGAMMA"> T  </i>
   </separator>
   <separator name="electronic projectors" >
    <i type="logical" name="LREAL"> F  </i>
    <v name="ROPT">      0.00000000      0.00000000</v>
    <i type="int" name="LMAXPAW">  -100</i>
    <i type="int" name="LMAXMIX">     2</i>
    <i type="logical" name="NLSPLINE"> F  </i>
   </separator>
   <separator name="electronic startup" >
    <i type="int" name="ISTART">     0</i>
    <i type="int" name="ICHARG">     2</i>
    <i type="int" name="INIWAV">     1</i>
   </separator>
   <separator name="electronic spin" >
    <i type="int" name="ISPIN">     1</i>
    <i type="logical" name="LNONCOLLINEAR"> F  </i>
    <v name="MAGMOM">      1.00000000      1.00000000      1.00000000      1.00000000      1.00000000      1.00000000</v>
    <i name="NUPDOWN">     -1.00000000</i>
    <i type="logical" name="LSORBIT"> F  </i>
    <v name="SAXIS">      0.00000000      0.00000000      1.00000000</v>
    <i type="logical" name="LSPIRAL"> F  </i>
    <v name="QSPIRAL">      0.00000000      0.00000000      0.00000000</v>
    <i type="logical" name="LZEROZ"> F  </i>
   </separator>
   <separator name="electronic exchange-correlation" >
    <i type="logical" name="LASPH"> F  </i>
    <i type="logical" name="LMETAGGA"> F  </i>
   </separator>
   <separator name="electronic convergence" >
    <i type="int" name="NELM">    60</i>
    <i type="int" name="NELMDL">     0</i>
    <i type="int" name="NELMIN">     4</i>
    <i name="ENINI">    550.00000000</i>
    <separator name="electronic convergence detail" >
     <i type="logical" name="LDIAG"> T  </i>
     <i type="logical" name="LSUBROT"> F  </i>
     <i name="WEIMIN">      0.00000000</i>
     <i name="EBREAK">      0.00000011</i>
     <i name="DEPER">      0.30000000</i>
     <i type="int" name="NRMM">     4</i>
     <i name="TIME">      0.40000000</i>
    </separator>
   </separator>
   <separator name="electronic mixer" >
    <i name="AMIX">      0.40000000</i>
    <i name="BMIX">      1.00000000</i>
    <i name="AMIN">      0.10000000</i>
    <i name="AMIX_MAG">      1.60000000</i>
    <i name="BMIX_MAG">      1.00000000</i>
    <separator name="electronic mixer details" >
     <i type="int" name="IMIX">     4</i>
     <i type="logical" name="MIXFIRST"> F  </i>
     <i type="int" name="MAXMIX">   -45</i>
     <i name="WC">    100.00000000</i>
     <i type="int" name="INIMIX">     1</i>
     <i type="int" name="MIXPRE">     1</i>
     <i type="int" name="MREMOVE">     5</i>
    </separator>
   </separator>
   <separator name="electronic dipolcorrection" >
    <i type="logical" name="LDIPOL"> F  </i>
    <i type="logical" name="LMONO"> F  </i>
    <i type="int" name="IDIPOL">     0</i>
    <i name="EPSILON">      1.00000000</i>
    <v name="DIPOL">   -100.00000000   -100.00000000   -100.00000000</v>
    <i name="EFIELD">      0.00000000</i>
   </separator>
  </separator>
  <separator name="grids" >
   <i type="int" name="NGX">    18</i>
   <i type="int" name="NGY">    18</i>
   <i type="int" name="NGZ">    90</i>
   <i type="int" name="NGXF">    36</i>
   <i type="int" name="NGYF">    36</i>
   <i type="int" name="NGZF">   180</i>
   <i type="logical" name="ADDGRID"> F  </i>
  </separator>
  <separator name="ionic" >
   <i type="int" name="NSW">     0</i>
   <i type="int" name="IBRION">    -1</i>
   <i type="int" name="MDALGO">     0</i>
   <i type="int" name="ISIF">     2</i>
   <i name="PSTRESS">      0.00000000</i>
   <i name="EDIFFG">      0.00010000</i>
   <i type="int" name="NFREE">     0</i>
   <i name="POTIM">      0.50000000</i>
   <i name="SMASS">     -3.00000000</i>
   <i name="SCALEE">      1.00000000</i>
  </separator>
  <separator name="ionic md" >
   <i name="TEBEG">      0.00010000</i>
   <i name="TEEND">      0.00010000</i>
   <i type="int" name="NBLOCK">     1</i>
   <i type="int" name="KBLOCK">     1</i>
   <i type="int" name="NPACO">   256</i>
   <i name="APACO">     16.00000000</i>
  </separator>
  <separator name="symmetry" >
   <i type="int" name="ISYM">     2</i>
   <i name="SYMPREC">      0.00001000</i>
  </separator>
  <separator name="dos" >
   <i type="int" name="LORBIT">     0</i>
   <v name="RWIGS">     -1.00000000     -1.00000000</v>
   <i type="int" name="NEDOS">   301</i>
   <i name="EMIN">     10.00000000</i>
   <i name="EMAX">    -10.00000000</i>
   <i name="EFERMI">      0.00000000</i>
  </separator>
  <separator name="writing" >
   <i type="int" name="NWRITE">     2</i>
   <i type="logical" name="LWAVE"> F  </i>
   <i type="logical" name="LDOWNSAMPLE"> F  </i>
   <i type="logical" name="LCHARG"> T  </i>
   <i type="logical" name="LPARD"> F  </i>
   <i type="logical" name="LVTOT"> F  </i>
   <i type="logical" name="LVHAR"> F  </i>
   <i type="logical" name="LELF"> F  </i>
   <i type="logical" name="LOPTICS"> F  </i>
   <v name="STM">      0.00000000      0.00000000      0.00000000      0.00000000      0.00000000      0.00000000      0.00000000</v>
  </separator>
  <separator name="performance" >
   <i type="int" name="NPAR">     2</i>
   <i type="int" name="NSIM">     4</i>
   <i type="int" name="NBLK">    -1</i>
   <i type="logical" name="LPLANE"> T  </i>
   <i type="logical" name="LSCALAPACK"> T  </i>
   <i type="logical" name="LSCAAWARE"> F  </i>
   <i type="logical" name="LSCALU"> F  </i>
   <i type="logical" name="LASYNC"> F  </i>
   <i type="logical" name="LORBITALREAL"> F  </i>
  </separator>
  <separator name="miscellaneous" >
   <i type="int" name="IDIOT">     3</i>
   <i type="int" name="ISPECIAL">     0</i>
   <i type="logical" name="LMUSIC"> F  </i>
   <v name="POMASS">     95.94000000     32.06600000</v>
   <v name="DARWINR">      0.00000000      0.00000000</v>
   <v name="DARWINV">      1.00000000      1.00000000</v>
   <i type="logical" name="LCORR"> T  </i>
  </separator>
  <i type="logical" name="GGA_COMPAT"> T  </i>
  <i type="logical" name="LBERRY"> F  </i>
  <i type="int" name="ICORELEVEL">     0</i>
  <i type="logical" name="LDAU"> F  </i>
  <i type="int" name="I_CONSTRAINED_M">     0</i>
  <separator name="electronic exchange-correlation" >
   <i type="string" name="GGA">--</i>
   <i type="int" name="VOSKOWN">     0</i>
   <i type="logical" name="LHFCALC"> F  </i>
   <i type="string" name="PRECFOCK"></i>
   <i type="logical" name="LSYMGRAD"> F  </i>
   <i type="logical" name="LHFONE"> F  </i>
   <i type="logical" name="LRHFCALC"> F  </i>
   <i type="logical" name="LTHOMAS"> F  </i>
   <i type="logical" name="LMODELHF"> F  </i>
   <i name="ENCUT4O">     -1.00000000</i>
   <i type="int" name="EXXOEP">     0</i>
   <i type="int" name="FOURORBIT">     0</i>
   <i name="AEXX">      0.00000000</i>
   <i name="HFALPHA">      0.00000000</i>
   <i name="MCALPHA">      0.00000000</i>
   <i name="ALDAX">      1.00000000</i>
   <i name="AGGAX">      1.00000000</i>
   <i name="ALDAC">      1.00000000</i>
   <i name="AGGAC">      1.00000000</i>
   <i type="int" name="NKREDX">     1</i>
   <i type="int" name="NKREDY">     1</i>
   <i type="int" name="NKREDZ">     1</i>
   <i type="logical" name="SHIFTRED"> F  </i>
   <i type="logical" name="ODDONLY"> F  </i>
   <i type="logical" name="EVENONLY"> F  </i>
   <i type="int" name="LMAXFOCK">     0</i>
   <i type="int" name="NMAXFOCKAE">     0</i>
   <i type="logical" name="LFOCKAEDFT"> F  </i>
   <i name="HFSCREEN">      0.00000000</i>
   <i name="HFSCREENC">      0.00000000</i>
   <i type="int" name="NBANDSGWLOW">     0</i>
  </separator>
  <separator name="vdW DFT" >
   <i type="logical" name="LUSE_VDW"> F  </i>
   <i name="Zab_VDW">     -0.84910000</i>
   <i name="PARAM1">      0.12340000</i>
   <i name="PARAM2">      1.00000000</i>
   <i name="PARAM3">      0.00000000</i>
  </separator>
  <separator name="model GW" >
   <i type="int" name="MODEL_GW">     0</i>
   <i name="MODEL_EPS0">     13.11510680</i>
   <i name="MODEL_ALPHA">      1.00000000</i>
  </separator>
  <separator name="linear response parameters" >
   <i type="logical" name="LEPSILON"> F  </i>
   <i type="logical" name="LRPA"> F  </i>
   <i type="logical" name="LNABLA"> F  </i>
   <i type="logical" name="LVEL"> F  </i>
   <i type="int" name="KINTER">     0</i>
   <i name="CSHIFT">      0.10000000</i>
   <i name="OMEGAMAX">     -1.00000000</i>
   <i name="DEG_THRESHOLD">      0.00200000</i>
   <i name="RTIME">     -0.10000000</i>
   <i name="WPLASMAI">      0.00000000</i>
   <v name="DFIELD">      0.00000000      0.00000000      0.00000000</v>
   <v name="WPLASMA">      0.00000000      0.00000000      0.00000000      0.00000000      0.00000000      0.00000000      0.00000000      0.00000000      0.00000000</v>
  </separator>
  <separator name="orbital magnetization" >
   <i type="logical" name="NUCIND"> F  </i>
   <v name="MAGPOS">      0.00000000      0.00000000      0.00000000</v>
   <i type="logical" name="LNICSALL"> T  </i>
   <i type="logical" name="ORBITALMAG"> F  </i>
   <i type="logical" name="LMAGBLOCH"> F  </i>
   <i type="logical" name="LCHIMAG"> F  </i>
   <i type="logical" name="LGAUGE"> T  </i>
   <i type="int" name="MAGATOM">     0</i>
   <v name="MAGDIPOL">      0.00000000      0.00000000      0.00000000</v>
   <v name="AVECCONST">      0.00000000      0.00000000      0.00000000</v>
  </separator>
  <separator name="response functions" >
   <i type="logical" name="LADDER"> F  </i>
   <i type="logical" name="LRPAFORCE"> F  </i>
   <i type="logical" name="LFXC"> F  </i>
   <i type="logical" name="LHARTREE"> T  </i>
   <i type="int" name="IBSE">     0</i>
   <v type="int" name="KPOINT">    -1     0     0     0</v>
   <i type="logical" name="LTCTE"> F  </i>
   <i type="logical" name="LTETE"> F  </i>
   <i type="logical" name="LTRIPLET"> F  </i>
   <i type="logical" name="LFXCEPS"> F  </i>
   <i type="logical" name="LFXHEG"> F  </i>
   <i type="int" name="NATURALO">     2</i>
   <i type="logical" name="L2ORDER"> F  </i>
   <i type="logical" name="LMP2LT"> F  </i>
   <i type="logical" name="LUSEW"> F  </i>
   <i name="ENCUTGW">     -2.00000000</i>
   <i name="ENCUTGWSOFT">     -2.00000000</i>
   <i name="ENCUTLF">     -1.00000000</i>
   <i type="int" name="LMAXMP2">    -1</i>
   <i name="SCISSOR">      0.00000000</i>
   <i type="int" name="NOMEGA">     0</i>
   <i type="int" name="NOMEGAR">     0</i>
   <i type="int" name="NBANDSGW">    -1</i>
   <i type="int" name="NBANDSO">    -1</i>
   <i type="int" name="NBANDSV">    -1</i>
   <i type="int" name="NELM">     1</i>
   <i type="int" name="NELMHF">     1</i>
   <i type="int" name="DIM">     3</i>
   <i type="int" name="ANTIRES">     0</i>
   <i name="OMEGAMAX">    -30.00000000</i>
   <i name="OMEGAMIN">    -30.00000000</i>
   <i name="OMEGATL">   -200.00000000</i>
   <i type="int" name="OMEGAGRID">   140</i>
   <i name="CSHIFT">     -0.10000000</i>
   <i type="logical" name="SELFENERGY"> F  </i>
   <i type="logical" name="LSPECTRAL"> F  </i>
   <i type="logical" name="LSPECTRALGW"> F  </i>
   <i type="logical" name="LSINGLES"> F  </i>
   <i type="logical" name="LFERMIGW"> F  </i>
   <i type="logical" name="ODDONLYGW"> F  </i>
   <i type="logical" name="EVENONLYGW"> F  </i>
   <i type="int" name="NKREDLFX">     1</i>
   <i type="int" name="NKREDLFY">     1</i>
   <i type="int" name="NKREDLFZ">     1</i>
   <i type="int" name="MAXMEM">  2800</i>
   <i type="int" name="TELESCOPE">     0</i>
   <i type="int" name="TAUPAR">     1</i>
   <i type="int" name="OMEGAPAR">    -1</i>
   <i name="LAMBDA">      1.00000000</i>
  </separator>
  <separator name="External order field" >
   <i name="OFIELD_KAPPA">      0.00000000</i>
   <v name="OFIELD_K">      0.00000000      0.00000000      0.00000000</v>
   <i name="OFIELD_Q6_NEAR">      0.00000000</i>
   <i name="OFIELD_Q6_FAR">      0.00000000</i>
   <i name="OFIELD_A">      0.00000000</i>
  </separator>
 </parameters>
 <atominfo>
  <atoms>       6 </atoms>
  <types>       2 </types>
  <array name="atoms" >
   <dimension dim="1">ion</dimension>
   <field type="string">element</field>
   <field type="int">atomtype</field>
   <set>
    <rc><c>Mo</c><c>   1</c></rc>
    <rc><c>Mo</c><c>   1</c></rc>
    <rc><c>S </c><c>   2</c></rc>
    <rc><c>S </c><c>   2</c></rc>
    <rc><c>S </c><c>   2</c></rc>
    <rc><c>S </c><c>   2</c></rc>
   </set>
  </array>
  <array name="atomtypes" >
   <dimension dim="1">type</dimension>
   <field type="int">atomspertype</field>
   <field type="string">element</field>
   <field>mass</field>
   <field>valence</field>
   <field type="string">pseudopotential</field>
   <set>
    <rc><c>   2</c><c>Mo</c><c>     95.94000000</c><c>      6.00000000</c><c> PAW_PBE Mo 08Apr2002                   </c></rc>
    <rc><c>   4</c><c>S </c><c>     32.06600000</c><c>      6.00000000</c><c>  PAW_PBE S 17Jan2003                   </c></rc>
   </set>
  </array>
 </atominfo>
 <structure name="initialpos" >
  <crystal>
   <varray name="basis" >
    <v>       3.19031573       0.00000000       0.00000000 </v>
    <v>      -1.59515786       2.76289447       0.00000000 </v>
    <v>       0.00000000       0.00000000      14.87900430 </v>
   </varray>
   <i name="volume">    131.15106795 </i>
   <varray name="rec_basis" >
    <v>       0.31344860       0.18096963       0.00000000 </v>
    <v>       0.00000000       0.36193927       0.00000000 </v>
    <v>       0.00000000       0.00000000       0.06720880 </v>
   </varray>
  </crystal>
  <varray name="positions" >
   <v>       0.33333300       0.66666700       0.25000000 </v>
   <v>       0.66666700       0.33333300       0.75000000 </v>
   <v>       0.33333300       0.66666700       0.85517400 </v>
   <v>       0.66666700       0.33333300       0.14482600 </v>
   <v>       0.66666600       0.33333300       0.35517400 </v>
   <v>       0.33333400       0.66666700       0.64482600 </v>
  </varray>
 </structure>
 <calculation>
  <scstep>
   <time name="dav">    0.57    0.58</time>
   <time name="total">    0.62    0.66</time>
   <energy>
    <i name="alphaZ">     90.42577596 </i>
    <i name="ewald">  -1146.88905665 </i>
    <i name="hartreedc">   -535.10238363 </i>
    <i name="XCdc">    -72.59368116 </i>
    <i name="pawpsdc">    813.77302396 </i>
    <i name="pawaedc">   -658.68146406 </i>
    <i name="eentropy">      0.00000000 </i>
    <i name="bandstr">    191.76709957 </i>
    <i name="atom">   1542.32161554 </i>
    <i name="e_fr_energy">    225.02092954 </i>
    <i name="e_wo_entrp">    225.02092954 </i>
    <i name="e_0_energy">    225.02092954 </i>
   </energy>
  </scstep>
  <scstep>
   <time name="dav">    0.70    0.71</time>
   <time name="total">    0.71    0.71</time>
   <energy>
    <i name="e_fr_energy">    -25.52499965 </i>
    <i name="e_wo_entrp">    -25.52499965 </i>
    <i name="e_0_energy">    -25.52499965 </i>
   </energy>
  </scstep>
  <scstep>
   <time name="dav">    0.70    0.71</time>
   <time name="total">    0.71    0.71</time>
   <energy>
    <i name="e_fr_energy">    -46.21711751 </i>
    <i name="e_wo_entrp">    -46.21711751 </i>
    <i name="e_0_energy">    -46.21711751 </i>
   </energy>
  </scstep>
  <scstep>
   <time name="dav">    0.73    0.73</time>
   <time name="total">    0.73    0.74</time>
   <energy>
    <i name="e_fr_energy">    -46.80721746 </i>
    <i name="e_wo_entrp">    -46.80721746 </i>
    <i name="e_0_energy">    -46.80721746 </i>
   </energy>
  </scstep>
  <scstep>
   <time name="dav">    0.72    0.73</time>
   <time name="total">    0.77    0.77</time>
   <energy>
    <i name="e_fr_energy">    -46.82291612 </i>
    <i name="e_wo_entrp">    -46.82291612 </i>
    <i name="e_0_energy">    -46.82291612 </i>
   </energy>
  </scstep>
  <scstep>
   <time name="diag">    0.11    0.11</time>
   <time name="diis">    0.49    0.49</time>
   <time name="orth">    0.01    0.01</time>
   <time name="total">    0.70    0.70</time>
   <energy>
    <i name="e_fr_energy">    -44.43484805 </i>
    <i name="e_wo_entrp">    -44.43484805 </i>
    <i name="e_0_energy">    -44.43484805 </i>
   </energy>
  </scstep>
  <scstep>
   <time name="diag">    0.11    0.11</time>
   <time name="diis">    0.48    0.48</time>
   <time name="orth">    0.01    0.01</time>
   <time name="total">    0.69    0.69</time>
   <energy>
    <i name="e_fr_energy">    -43.69794928 </i>
    <i name="e_wo_entrp">    -43.69794928 </i>
    <i name="e_0_energy">    -43.69794928 </i>
   </energy>
  </scstep>
  <scstep>
   <time name="diag">    0.11    0.11</time>
   <time name="diis">    0.49    0.49</time>
   <time name="orth">    0.01    0.01</time>
   <time name="total">    0.70    0.71</time>
   <energy>
    <i name="e_fr_energy">    -43.63403236 </i>
    <i name="e_wo_entrp">    -43.63403236 </i>
    <i name="e_0_energy">    -43.63403236 </i>
   </energy>
  </scstep>
  <scstep>
   <time name="diag">    0.11    0.11</time>
   <time name="diis">    0.51    0.51</time>
   <time name="orth">    0.01    0.01</time>
   <time name="total">    0.72    0.72</time>
   <energy>
    <i name="e_fr_energy">    -43.62477708 </i>
    <i name="e_wo_entrp">    -43.62477708 </i>
    <i name="e_0_energy">    -43.62477708 </i>
   </energy>
  </scstep>
  <scstep>
   <time name="diag">    0.11    0.11</time>
   <time name="diis">    0.52    0.52</time>
   <time name="orth">    0.01    0.01</time>
   <time name="total">    0.73    0.73</time>
   <energy>
    <i name="e_fr_energy">    -43.60805962 </i>
    <i name="e_wo_entrp">    -43.60805962 </i>
    <i name="e_0_energy">    -43.60805962 </i>
   </energy>
  </scstep>
  <scstep>
   <time name="diag">    0.11    0.11</time>
   <time name="diis">    0.54    0.54</time>
   <time name="orth">    0.01    0.01</time>
   <time name="total">    0.75    0.75</time>
   <energy>
    <i name="e_fr_energy">    -43.60812342 </i>
    <i name="e_wo_entrp">    -43.60812342 </i>
    <i name="e_0_energy">    -43.60812342 </i>
   </energy>
  </scstep>
  <scstep>
   <time name="diag">    0.11    0.11</time>
   <time name="diis">    0.54    0.54</time>
   <time name="orth">    0.01    0.01</time>
   <time name="total">    0.75    0.75</time>
   <energy>
    <i name="e_fr_energy">    -43.60827808 </i>
    <i name="e_wo_entrp">    -43.60827808 </i>
    <i name="e_0_energy">    -43.60827808 </i>
   </energy>
  </scstep>
  <scstep>
   <time name="diag">    0.11    0.11</time>
   <time name="diis">    0.55    0.55</time>
   <time name="orth">    0.01    0.01</time>
   <time name="total">    0.76    0.76</time>
   <energy>
    <i name="e_fr_energy">    -43.60828673 </i>
    <i name="e_wo_entrp">    -43.60828673 </i>
    <i name="e_0_energy">    -43.60828673 </i>
   </energy>
  </scstep>
  <scstep>
   <time name="diag">    0.11    0.11</time>
   <time name="diis">    0.45    0.45</time>
   <time name="orth">    0.01    0.01</time>
   <time name="total">    0.66    0.66</time>
   <energy>
    <i name="e_fr_energy">    -43.60826907 </i>
    <i name="e_wo_entrp">    -43.60826907 </i>
    <i name="e_0_energy">    -43.60826907 </i>
   </energy>
  </scstep>
  <scstep>
   <time name="diag">    0.11    0.11</time>
   <time name="diis">    0.35    0.35</time>
   <time name="orth">    0.01    0.01</time>
   <time name="total">    0.52    0.51</time>
   <energy>
    <i name="alphaZ">     90.42577596 </i>
    <i name="ewald">  -1146.88905665 </i>
    <i name="hartreedc">   -542.96216103 </i>
    <i name="XCdc">    -70.38648440 </i>
    <i name="pawpsdc">    943.87605129 </i>
    <i name="pawaedc">   -792.25829865 </i>
    <i name="eentropy">      0.00000000 </i>
    <i name="bandstr">    -67.73571152 </i>
    <i name="atom">   1542.32161554 </i>
    <i name="e_fr_energy">    -43.60826946 </i>
    <i name="e_wo_entrp">    -43.60826946 </i>
    <i name="e_0_energy">    -43.60826946 </i>
   </energy>
  </scstep>
  <structure>
   <crystal>
    <varray name="basis" >
     <v>       3.19031573       0.00000000       0.00000000 </v>
     <v>      -1.59515786       2.76289447       0.00000000 </v>
     <v>       0.00000000       0.00000000      14.87900430 </v>
    </varray>
    <i name="volume">    131.15106795 </i>
    <varray name="rec_basis" >
     <v>       0.31344860       0.18096963       0.00000000 </v>
     <v>       0.00000000       0.36193927       0.00000000 </v>
     <v>       0.00000000       0.00000000       0.06720880 </v>
    </varray>
   </crystal>
   <varray name="positions" >
    <v>       0.33333300       0.66666700       0.25000000 </v>
    <v>       0.66666700       0.33333300       0.75000000 </v>
    <v>       0.33333300       0.66666700       0.85517400 </v>
    <v>       0.66666700       0.33333300       0.14482600 </v>
    <v>       0.66666600       0.33333300       0.35517400 </v>
    <v>       0.33333400       0.66666700       0.64482600 </v>
   </varray>
  </structure>
  <varray name="forces" >
   <v>      -0.00000000      -0.00000000       0.00000000 </v>
   <v>      -0.00000000      -0.00000000       0.00000000 </v>
   <v>      -0.00000000       0.00000000      -0.08430102 </v>
   <v>       0.00000000      -0.00000000       0.08430102 </v>
   <v>       0.00000000       0.00000000      -0.08430102 </v>
   <v>      -0.00000000      -0.00000000       0.08430102 </v>
  </varray>
  <varray name="stress" >
   <v>      -4.98841164       0.00000000      -0.00000000 </v>
   <v>      -0.00000000      -4.98841164      -0.00000000 </v>
   <v>       0.00000000       0.00000000     -16.43042962 </v>
  </varray>
  <energy>
   <i name="e_fr_energy">    -44.93955648 </i>
   <i name="e_wo_entrp">    -44.93955648 </i>
   <i name="e_0_energy">      0.00000000 </i>
  </energy>
  <time name="totalsc">   11.55   11.66</time>
  <eigenvalues>
   <array>
    <dimension dim="1">band</dimension>
    <dimension dim="2">kpoint</dimension>
    <dimension dim="3">spin</dimension>
    <field>eigene</field>
    <field>occ</field>
    <set>
     <set comment="spin 1">
      <set comment="kpoint 1">
       <r>  -10.9295    1.0000 </r>
       <r>  -10.9105    1.0000 </r>
       <r>   -9.7290    1.0000 </r>
       <r>   -9.6951    1.0000 </r>
       <r>   -2.5235    1.0000 </r>
       <r>   -2.3620    1.0000 </r>
       <r>    0.5196    1.0000 </r>
       <r>    0.5196    1.0000 </r>
       <r>    0.5201    1.0000 </r>
       <r>    0.5201    1.0000 </r>
       <r>    1.1061    1.0000 </r>
       <r>    1.6245    1.0000 </r>
       <r>    1.6245    1.0000 </r>
       <r>    1.6264    1.0000 </r>
       <r>    1.6264    1.0000 </r>
       <r>    1.6744    1.0000 </r>
       <r>    2.9224    1.0000 </r>
       <r>    3.2981    1.0000 </r>
       <r>    5.8743    0.0000 </r>
       <r>    5.8938    0.0000 </r>
       <r>    5.9156    0.0000 </r>
       <r>    5.9950    0.0000 </r>
      </set>
      <set comment="kpoint 2">
       <r>  -10.7152    1.0000 </r>
       <r>  -10.6966    1.0000 </r>
       <r>   -9.6254    1.0000 </r>
       <r>   -9.5939    1.0000 </r>
       <r>   -2.2777    1.0000 </r>
       <r>   -2.1188    1.0000 </r>
       <r>    0.0551    1.0000 </r>
       <r>    0.0578    1.0000 </r>
       <r>    0.4565    1.0000 </r>
       <r>    0.6726    1.0000 </r>
       <r>    0.7536    1.0000 </r>
       <r>    0.7549    1.0000 </r>
       <r>    1.2885    1.0000 </r>
       <r>    1.2910    1.0000 </r>
       <r>    1.9306    1.0000 </r>
       <r>    2.2145    1.0000 </r>
       <r>    2.8433    1.0000 </r>
       <r>    3.0852    1.0000 </r>
       <r>    5.5359    0.0000 </r>
       <r>    5.6307    0.0000 </r>
       <r>    5.7336    0.0000 </r>
       <r>    5.8204    0.0000 </r>
      </set>
      <set comment="kpoint 3">
       <r>  -10.1455    1.0000 </r>
       <r>  -10.1288    1.0000 </r>
       <r>   -9.3530    1.0000 </r>
       <r>   -9.3286    1.0000 </r>
       <r>   -1.8878    1.0000 </r>
       <r>   -1.7770    1.0000 </r>
       <r>   -0.6915    1.0000 </r>
       <r>   -0.6480    1.0000 </r>
       <r>   -0.4613    1.0000 </r>
       <r>   -0.3599    1.0000 </r>
       <r>    0.6530    1.0000 </r>
       <r>    0.6564    1.0000 </r>
       <r>    1.3396    1.0000 </r>
       <r>    1.3432    1.0000 </r>
       <r>    1.7041    1.0000 </r>
       <r>    1.9128    1.0000 </r>
       <r>    2.3697    1.0000 </r>
       <r>    2.4182    1.0000 </r>
       <r>    5.1191    0.0000 </r>
       <r>    5.4384    0.0000 </r>
       <r>    5.4497    0.0000 </r>
       <r>    5.4586    0.0000 </r>
      </set>
      <set comment="kpoint 4">
       <r>   -9.4679    1.0000 </r>
       <r>   -9.4561    1.0000 </r>
       <r>   -9.0395    1.0000 </r>
       <r>   -9.0252    1.0000 </r>
       <r>   -2.2853    1.0000 </r>
       <r>   -2.2506    1.0000 </r>
       <r>   -1.2976    1.0000 </r>
       <r>   -1.2546    1.0000 </r>
       <r>   -0.8465    1.0000 </r>
       <r>   -0.7615    1.0000 </r>
       <r>    0.1554    1.0000 </r>
       <r>    0.1594    1.0000 </r>
       <r>    1.3420    1.0000 </r>
       <r>    1.4496    1.0000 </r>
       <r>    1.9277    1.0000 </r>
       <r>    1.9363    1.0000 </r>
       <r>    2.1734    1.0000 </r>
       <r>    2.2241    1.0000 </r>
       <r>    5.2592    0.0000 </r>
       <r>    5.2683    0.0000 </r>
       <r>    5.4543    0.0000 </r>
       <r>    5.6327    0.0000 </r>
      </set>
      <set comment="kpoint 5">
       <r>   -9.1370    1.0000 </r>
       <r>   -9.1305    1.0000 </r>
       <r>   -8.8922    1.0000 </r>
       <r>   -8.8858    1.0000 </r>
       <r>   -2.6137    1.0000 </r>
       <r>   -2.5868    1.0000 </r>
       <r>   -1.6529    1.0000 </r>
       <r>   -1.6284    1.0000 </r>
       <r>   -0.9683    1.0000 </r>
       <r>   -0.8925    1.0000 </r>
       <r>   -0.0252    1.0000 </r>
       <r>   -0.0211    1.0000 </r>
       <r>    1.2466    1.0000 </r>
       <r>    1.2661    1.0000 </r>
       <r>    2.1531    1.0000 </r>
       <r>    2.1652    1.0000 </r>
       <r>    2.4770    1.0000 </r>
       <r>    2.4808    1.0000 </r>
       <r>    5.2841    0.0000 </r>
       <r>    5.2878    0.0000 </r>
       <r>    5.7736    0.0000 </r>
       <r>    5.8295    0.0000 </r>
      </set>
      <set comment="kpoint 6">
       <r>  -10.3218    1.0000 </r>
       <r>  -10.3043    1.0000 </r>
       <r>   -9.4359    1.0000 </r>
       <r>   -9.4093    1.0000 </r>
       <r>   -1.9209    1.0000 </r>
       <r>   -1.7812    1.0000 </r>
       <r>   -0.5137    1.0000 </r>
       <r>   -0.5011    1.0000 </r>
       <r>   -0.0651    1.0000 </r>
       <r>    0.0769    1.0000 </r>
       <r>    0.4638    1.0000 </r>
       <r>    0.4900    1.0000 </r>
       <r>    1.0929    1.0000 </r>
       <r>    1.0947    1.0000 </r>
       <r>    2.0958    1.0000 </r>
       <r>    2.2981    1.0000 </r>
       <r>    2.5520    1.0000 </r>
       <r>    2.6275    1.0000 </r>
       <r>    5.0622    0.0000 </r>
       <r>    5.3255    0.0000 </r>
       <r>    5.5252    0.0000 </r>
       <r>    5.5521    0.0000 </r>
      </set>
      <set comment="kpoint 7">
       <r>   -9.6865    1.0000 </r>
       <r>   -9.6724    1.0000 </r>
       <r>   -9.1331    1.0000 </r>
       <r>   -9.1149    1.0000 </r>
       <r>   -1.9396    1.0000 </r>
       <r>   -1.8865    1.0000 </r>
       <r>   -0.9511    1.0000 </r>
       <r>   -0.9199    1.0000 </r>
       <r>   -0.7084    1.0000 </r>
       <r>   -0.6349    1.0000 </r>
       <r>   -0.0667    1.0000 </r>
       <r>    0.0080    1.0000 </r>
       <r>    1.1903    1.0000 </r>
       <r>    1.1962    1.0000 </r>
       <r>    1.7872    1.0000 </r>
       <r>    1.8736    1.0000 </r>
       <r>    2.3022    1.0000 </r>
       <r>    2.3120    1.0000 </r>
       <r>    4.9960    0.0000 </r>
       <r>    5.2122    0.0000 </r>
       <r>    5.5393    0.0000 </r>
       <r>    5.6360    0.0000 </r>
      </set>
      <set comment="kpoint 8">
       <r>   -9.1528    1.0000 </r>
       <r>   -9.1451    1.0000 </r>
       <r>   -8.8842    1.0000 </r>
       <r>   -8.8759    1.0000 </r>
       <r>   -2.3265    1.0000 </r>
       <r>   -2.2995    1.0000 </r>
       <r>   -1.7022    1.0000 </r>
       <r>   -1.6931    1.0000 </r>
       <r>   -0.8379    1.0000 </r>
       <r>   -0.7673    1.0000 </r>
       <r>   -0.0673    1.0000 </r>
       <r>   -0.0249    1.0000 </r>
       <r>    1.2000    1.0000 </r>
       <r>    1.2163    1.0000 </r>
       <r>    1.3284    1.0000 </r>
       <r>    1.3667    1.0000 </r>
       <r>    2.6246    1.0000 </r>
       <r>    2.6428    1.0000 </r>
       <r>    5.2705    0.0000 </r>
       <r>    5.3348    0.0000 </r>
       <r>    5.7801    0.0000 </r>
       <r>    6.6051    0.0000 </r>
      </set>
      <set comment="kpoint 9">
       <r>   -9.1683    1.0000 </r>
       <r>   -9.1596    1.0000 </r>
       <r>   -8.8760    1.0000 </r>
       <r>   -8.8661    1.0000 </r>
       <r>   -1.9672    1.0000 </r>
       <r>   -1.9386    1.0000 </r>
       <r>   -1.7537    1.0000 </r>
       <r>   -1.7425    1.0000 </r>
       <r>   -0.4881    1.0000 </r>
       <r>   -0.4636    1.0000 </r>
       <r>   -0.1392    1.0000 </r>
       <r>   -0.0510    1.0000 </r>
       <r>    0.2147    1.0000 </r>
       <r>    0.2373    1.0000 </r>
       <r>    1.4763    1.0000 </r>
       <r>    1.4870    1.0000 </r>
       <r>    2.6005    1.0000 </r>
       <r>    2.6102    1.0000 </r>
       <r>    5.1853    0.0000 </r>
       <r>    5.3137    0.0000 </r>
       <r>    5.8881    0.0000 </r>
       <r>    6.0753    0.0000 </r>
      </set>
      <set comment="kpoint 10">
       <r>   -8.9306    1.0000 </r>
       <r>   -8.9275    1.0000 </r>
       <r>   -8.7535    1.0000 </r>
       <r>   -8.7503    1.0000 </r>
       <r>   -2.1379    1.0000 </r>
       <r>   -2.1271    1.0000 </r>
       <r>   -1.7918    1.0000 </r>
       <r>   -1.7756    1.0000 </r>
       <r>   -0.7780    1.0000 </r>
       <r>   -0.7408    1.0000 </r>
       <r>   -0.1070    1.0000 </r>
       <r>   -0.0861    1.0000 </r>
       <r>    0.1070    1.0000 </r>
       <r>    0.1579    1.0000 </r>
       <r>    1.0757    1.0000 </r>
       <r>    1.1156    1.0000 </r>
       <r>    2.9620    1.0000 </r>
       <r>    2.9832    1.0000 </r>
       <r>    4.9234    0.0000 </r>
       <r>    4.9323    0.0000 </r>
       <r>    6.1512    0.0000 </r>
       <r>    6.3395    0.0000 </r>
      </set>
      <set comment="kpoint 11">
       <r>  -10.9202    1.0000 </r>
       <r>  -10.9201    1.0000 </r>
       <r>   -9.7120    1.0000 </r>
       <r>   -9.7120    1.0000 </r>
       <r>   -2.4456    1.0000 </r>
       <r>   -2.4456    1.0000 </r>
       <r>    0.5199    1.0000 </r>
       <r>    0.5199    1.0000 </r>
       <r>    0.5199    1.0000 </r>
       <r>    0.5199    1.0000 </r>
       <r>    1.3629    1.0000 </r>
       <r>    1.3629    1.0000 </r>
       <r>    1.6255    1.0000 </r>
       <r>    1.6255    1.0000 </r>
       <r>    1.6255    1.0000 </r>
       <r>    1.6255    1.0000 </r>
       <r>    3.1409    1.0000 </r>
       <r>    3.1409    1.0000 </r>
       <r>    5.8736    0.0000 </r>
       <r>    5.8834    0.0000 </r>
       <r>    5.9051    0.0000 </r>
       <r>    5.9513    0.0000 </r>
      </set>
      <set comment="kpoint 12">
       <r>  -10.7060    1.0000 </r>
       <r>  -10.7060    1.0000 </r>
       <r>   -9.6096    1.0000 </r>
       <r>   -9.6096    1.0000 </r>
       <r>   -2.2013    1.0000 </r>
       <r>   -2.2013    1.0000 </r>
       <r>    0.0562    1.0000 </r>
       <r>    0.0562    1.0000 </r>
       <r>    0.5712    1.0000 </r>
       <r>    0.5712    1.0000 </r>
       <r>    0.7543    1.0000 </r>
       <r>    0.7543    1.0000 </r>
       <r>    1.2897    1.0000 </r>
       <r>    1.2897    1.0000 </r>
       <r>    2.0428    1.0000 </r>
       <r>    2.0428    1.0000 </r>
       <r>    2.9902    1.0000 </r>
       <r>    2.9902    1.0000 </r>
       <r>    5.5774    0.0000 </r>
       <r>    5.6326    0.0000 </r>
       <r>    5.7283    0.0000 </r>
       <r>    5.8129    0.0000 </r>
      </set>
      <set comment="kpoint 13">
       <r>  -10.1373    1.0000 </r>
       <r>  -10.1373    1.0000 </r>
       <r>   -9.3407    1.0000 </r>
       <r>   -9.3407    1.0000 </r>
       <r>   -1.8342    1.0000 </r>
       <r>   -1.8342    1.0000 </r>
       <r>   -0.6754    1.0000 </r>
       <r>   -0.6754    1.0000 </r>
       <r>   -0.4026    1.0000 </r>
       <r>   -0.4026    1.0000 </r>
       <r>    0.6547    1.0000 </r>
       <r>    0.6547    1.0000 </r>
       <r>    1.3414    1.0000 </r>
       <r>    1.3414    1.0000 </r>
       <r>    1.8006    1.0000 </r>
       <r>    1.8006    1.0000 </r>
       <r>    2.3994    1.0000 </r>
       <r>    2.3994    1.0000 </r>
       <r>    5.2600    0.0000 </r>
       <r>    5.2613    0.0000 </r>
       <r>    5.4468    0.0000 </r>
       <r>    5.4657    0.0000 </r>
      </set>
      <set comment="kpoint 14">
       <r>   -9.4621    1.0000 </r>
       <r>   -9.4621    1.0000 </r>
       <r>   -9.0323    1.0000 </r>
       <r>   -9.0323    1.0000 </r>
       <r>   -2.2682    1.0000 </r>
       <r>   -2.2682    1.0000 </r>
       <r>   -1.2780    1.0000 </r>
       <r>   -1.2780    1.0000 </r>
       <r>   -0.8020    1.0000 </r>
       <r>   -0.8020    1.0000 </r>
       <r>    0.1574    1.0000 </r>
       <r>    0.1574    1.0000 </r>
       <r>    1.3937    1.0000 </r>
       <r>    1.3937    1.0000 </r>
       <r>    1.9320    1.0000 </r>
       <r>    1.9320    1.0000 </r>
       <r>    2.2007    1.0000 </r>
       <r>    2.2007    1.0000 </r>
       <r>    5.2637    0.0000 </r>
       <r>    5.2637    0.0000 </r>
       <r>    5.5373    0.0000 </r>
       <r>    5.5373    0.0000 </r>
      </set>
      <set comment="kpoint 15">
       <r>   -9.1338    1.0000 </r>
       <r>   -9.1338    1.0000 </r>
       <r>   -8.8890    1.0000 </r>
       <r>   -8.8890    1.0000 </r>
       <r>   -2.6004    1.0000 </r>
       <r>   -2.6003    1.0000 </r>
       <r>   -1.6415    1.0000 </r>
       <r>   -1.6415    1.0000 </r>
       <r>   -0.9294    1.0000 </r>
       <r>   -0.9294    1.0000 </r>
       <r>   -0.0232    1.0000 </r>
       <r>   -0.0232    1.0000 </r>
       <r>    1.2561    1.0000 </r>
       <r>    1.2561    1.0000 </r>
       <r>    2.1592    1.0000 </r>
       <r>    2.1592    1.0000 </r>
       <r>    2.4790    1.0000 </r>
       <r>    2.4790    1.0000 </r>
       <r>    5.2859    0.0000 </r>
       <r>    5.2859    0.0000 </r>
       <r>    5.8015    0.0000 </r>
       <r>    5.8035    0.0000 </r>
      </set>
      <set comment="kpoint 16">
       <r>  -10.3132    1.0000 </r>
       <r>  -10.3132    1.0000 </r>
       <r>   -9.4225    1.0000 </r>
       <r>   -9.4225    1.0000 </r>
       <r>   -1.8540    1.0000 </r>
       <r>   -1.8540    1.0000 </r>
       <r>   -0.5091    1.0000 </r>
       <r>   -0.5091    1.0000 </r>
       <r>    0.0126    1.0000 </r>
       <r>    0.0126    1.0000 </r>
       <r>    0.4758    1.0000 </r>
       <r>    0.4758    1.0000 </r>
       <r>    1.0938    1.0000 </r>
       <r>    1.0938    1.0000 </r>
       <r>    2.1817    1.0000 </r>
       <r>    2.1817    1.0000 </r>
       <r>    2.6015    1.0000 </r>
       <r>    2.6015    1.0000 </r>
       <r>    5.1825    0.0000 </r>
       <r>    5.1888    0.0000 </r>
       <r>    5.5436    0.0000 </r>
       <r>    5.6055    0.0000 </r>
      </set>
      <set comment="kpoint 17">
       <r>   -9.6796    1.0000 </r>
       <r>   -9.6796    1.0000 </r>
       <r>   -9.1239    1.0000 </r>
       <r>   -9.1239    1.0000 </r>
       <r>   -1.9134    1.0000 </r>
       <r>   -1.9134    1.0000 </r>
       <r>   -0.9374    1.0000 </r>
       <r>   -0.9374    1.0000 </r>
       <r>   -0.6716    1.0000 </r>
       <r>   -0.6716    1.0000 </r>
       <r>   -0.0267    1.0000 </r>
       <r>   -0.0267    1.0000 </r>
       <r>    1.1931    1.0000 </r>
       <r>    1.1931    1.0000 </r>
       <r>    1.8284    1.0000 </r>
       <r>    1.8284    1.0000 </r>
       <r>    2.3077    1.0000 </r>
       <r>    2.3077    1.0000 </r>
       <r>    5.1026    0.0000 </r>
       <r>    5.1028    0.0000 </r>
       <r>    5.5542    0.0000 </r>
       <r>    5.6408    0.0000 </r>
      </set>
      <set comment="kpoint 18">
       <r>   -9.1490    1.0000 </r>
       <r>   -9.1490    1.0000 </r>
       <r>   -8.8800    1.0000 </r>
       <r>   -8.8800    1.0000 </r>
       <r>   -2.3131    1.0000 </r>
       <r>   -2.3131    1.0000 </r>
       <r>   -1.6979    1.0000 </r>
       <r>   -1.6979    1.0000 </r>
       <r>   -0.8034    1.0000 </r>
       <r>   -0.8034    1.0000 </r>
       <r>   -0.0447    1.0000 </r>
       <r>   -0.0446    1.0000 </r>
       <r>    1.2074    1.0000 </r>
       <r>    1.2074    1.0000 </r>
       <r>    1.3475    1.0000 </r>
       <r>    1.3475    1.0000 </r>
       <r>    2.6340    1.0000 </r>
       <r>    2.6340    1.0000 </r>
       <r>    5.3029    0.0000 </r>
       <r>    5.3029    0.0000 </r>
       <r>    5.8119    0.0000 </r>
       <r>    5.8129    0.0000 </r>
      </set>
      <set comment="kpoint 19">
       <r>   -9.1640    1.0000 </r>
       <r>   -9.1640    1.0000 </r>
       <r>   -8.8710    1.0000 </r>
       <r>   -8.8710    1.0000 </r>
       <r>   -1.9531    1.0000 </r>
       <r>   -1.9531    1.0000 </r>
       <r>   -1.7479    1.0000 </r>
       <r>   -1.7479    1.0000 </r>
       <r>   -0.4796    1.0000 </r>
       <r>   -0.4796    1.0000 </r>
       <r>   -0.0909    1.0000 </r>
       <r>   -0.0909    1.0000 </r>
       <r>    0.2262    1.0000 </r>
       <r>    0.2262    1.0000 </r>
       <r>    1.4806    1.0000 </r>
       <r>    1.4806    1.0000 </r>
       <r>    2.6054    1.0000 </r>
       <r>    2.6054    1.0000 </r>
       <r>    5.2493    0.0000 </r>
       <r>    5.2495    0.0000 </r>
       <r>    5.8756    0.0000 </r>
       <r>    6.1850    0.0000 </r>
      </set>
      <set comment="kpoint 20">
       <r>   -8.9291    1.0000 </r>
       <r>   -8.9291    1.0000 </r>
       <r>   -8.7519    1.0000 </r>
       <r>   -8.7519    1.0000 </r>
       <r>   -2.1326    1.0000 </r>
       <r>   -2.1326    1.0000 </r>
       <r>   -1.7835    1.0000 </r>
       <r>   -1.7835    1.0000 </r>
       <r>   -0.7604    1.0000 </r>
       <r>   -0.7604    1.0000 </r>
       <r>   -0.0992    1.0000 </r>
       <r>   -0.0992    1.0000 </r>
       <r>    0.1373    1.0000 </r>
       <r>    0.1373    1.0000 </r>
       <r>    1.0942    1.0000 </r>
       <r>    1.0942    1.0000 </r>
       <r>    2.9726    1.0000 </r>
       <r>    2.9726    1.0000 </r>
       <r>    4.9280    0.0000 </r>
       <r>    4.9280    0.0000 </r>
       <r>    6.2282    0.0000 </r>
       <r>    6.2317    0.0000 </r>
      </set>
     </set>
    </set>
   </array>
  </eigenvalues>
  <separator name="orbital magnetization" >
   <v name="MAGDIPOLOUT">      0.00000000      0.00000000      0.00000000</v>
  </separator>
  <dos>
   <i name="efermi">      3.30219338 </i>
   <total>
    <array>
     <dimension dim="1">gridpoints</dimension>
     <dimension dim="2">spin</dimension>
     <field>energy</field>
     <field>total</field>
     <field>integrated</field>
     <set>
      <set comment="spin 1">
       <r>   -12.9295     0.0000     0.0000 </r>
       <r>   -12.8577     0.0000     0.0000 </r>
       <r>   -12.7860     0.0000     0.0000 </r>
       <r>   -12.7142     0.0000     0.0000 </r>
       <r>   -12.6424     0.0000     0.0000 </r>
       <r>   -12.5706     0.0000     0.0000 </r>
       <r>   -12.4988     0.0000     0.0000 </r>
       <r>   -12.4271     0.0000     0.0000 </r>
       <r>   -12.3553     0.0000     0.0000 </r>
       <r>   -12.2835     0.0000     0.0000 </r>
       <r>   -12.2117     0.0000     0.0000 </r>
       <r>   -12.1399     0.0000     0.0000 </r>
       <r>   -12.0681     0.0000     0.0000 </r>
       <r>   -11.9964     0.0000     0.0000 </r>
       <r>   -11.9246     0.0000     0.0000 </r>
       <r>   -11.8528     0.0000     0.0000 </r>
       <r>   -11.7810     0.0000     0.0000 </r>
       <r>   -11.7092     0.0000     0.0000 </r>
       <r>   -11.6375     0.0000     0.0000 </r>
       <r>   -11.5657     0.0000     0.0000 </r>
       <r>   -11.4939     0.0000     0.0000 </r>
       <r>   -11.4221     0.0000     0.0000 </r>
       <r>   -11.3503     0.0000     0.0000 </r>
       <r>   -11.2785     0.0000     0.0000 </r>
       <r>   -11.2068     0.0000     0.0000 </r>
       <r>   -11.1350     0.0000     0.0000 </r>
       <r>   -11.0632     0.0000     0.0000 </r>
       <r>   -10.9914     0.0000     0.0000 </r>
       <r>   -10.9196     0.0213     0.0001 </r>
       <r>   -10.8478     0.5907     0.0215 </r>
       <r>   -10.7761     1.1777     0.0849 </r>
       <r>   -10.7043     1.2703     0.1879 </r>
       <r>   -10.6325     1.0227     0.2601 </r>
       <r>   -10.5607     1.0892     0.3359 </r>
       <r>   -10.4889     1.1557     0.4165 </r>
       <r>   -10.4172     1.2223     0.5018 </r>
       <r>   -10.3454     1.2888     0.5920 </r>
       <r>   -10.2736     1.3253     0.6863 </r>
       <r>   -10.2018     1.3372     0.7818 </r>
       <r>   -10.1300     1.3536     0.8783 </r>
       <r>   -10.0582     1.4092     0.9774 </r>
       <r>    -9.9865     1.4649     1.0806 </r>
       <r>    -9.9147     1.5205     1.1877 </r>
       <r>    -9.8429     1.5761     1.2989 </r>
       <r>    -9.7711     1.6318     1.4140 </r>
       <r>    -9.6993     2.1459     1.5377 </r>
       <r>    -9.6276     4.9972     1.7948 </r>
       <r>    -9.5558     4.4052     2.1166 </r>
       <r>    -9.4840     4.9024     2.4507 </r>
       <r>    -9.4122     5.4334     2.8219 </r>
       <r>    -9.3404     5.7964     3.2246 </r>
       <r>    -9.2686     6.3583     3.6606 </r>
       <r>    -9.1969     6.9293     4.1375 </r>
       <r>    -9.1251     8.4265     4.8996 </r>
       <r>    -9.0533     8.3722     5.5056 </r>
       <r>    -8.9815     8.5804     6.1103 </r>
       <r>    -8.9097     7.6441     6.7737 </r>
       <r>    -8.8380     7.0690     7.4977 </r>
       <r>    -8.7662     3.8002     7.8878 </r>
       <r>    -8.6944     0.0000     8.0000 </r>
       <r>    -8.6226     0.0000     8.0000 </r>
       <r>    -8.5508     0.0000     8.0000 </r>
       <r>    -8.4790     0.0000     8.0000 </r>
       <r>    -8.4073     0.0000     8.0000 </r>
       <r>    -8.3355     0.0000     8.0000 </r>
       <r>    -8.2637     0.0000     8.0000 </r>
       <r>    -8.1919     0.0000     8.0000 </r>
       <r>    -8.1201     0.0000     8.0000 </r>
       <r>    -8.0483     0.0000     8.0000 </r>
       <r>    -7.9766     0.0000     8.0000 </r>
       <r>    -7.9048     0.0000     8.0000 </r>
       <r>    -7.8330     0.0000     8.0000 </r>
       <r>    -7.7612     0.0000     8.0000 </r>
       <r>    -7.6894     0.0000     8.0000 </r>
       <r>    -7.6177     0.0000     8.0000 </r>
       <r>    -7.5459     0.0000     8.0000 </r>
       <r>    -7.4741     0.0000     8.0000 </r>
       <r>    -7.4023     0.0000     8.0000 </r>
       <r>    -7.3305     0.0000     8.0000 </r>
       <r>    -7.2587     0.0000     8.0000 </r>
       <r>    -7.1870     0.0000     8.0000 </r>
       <r>    -7.1152     0.0000     8.0000 </r>
       <r>    -7.0434     0.0000     8.0000 </r>
       <r>    -6.9716     0.0000     8.0000 </r>
       <r>    -6.8998     0.0000     8.0000 </r>
       <r>    -6.8281     0.0000     8.0000 </r>
       <r>    -6.7563     0.0000     8.0000 </r>
       <r>    -6.6845     0.0000     8.0000 </r>
       <r>    -6.6127     0.0000     8.0000 </r>
       <r>    -6.5409     0.0000     8.0000 </r>
       <r>    -6.4691     0.0000     8.0000 </r>
       <r>    -6.3974     0.0000     8.0000 </r>
       <r>    -6.3256     0.0000     8.0000 </r>
       <r>    -6.2538     0.0000     8.0000 </r>
       <r>    -6.1820     0.0000     8.0000 </r>
       <r>    -6.1102     0.0000     8.0000 </r>
       <r>    -6.0384     0.0000     8.0000 </r>
       <r>    -5.9667     0.0000     8.0000 </r>
       <r>    -5.8949     0.0000     8.0000 </r>
       <r>    -5.8231     0.0000     8.0000 </r>
       <r>    -5.7513     0.0000     8.0000 </r>
       <r>    -5.6795     0.0000     8.0000 </r>
       <r>    -5.6078     0.0000     8.0000 </r>
       <r>    -5.5360     0.0000     8.0000 </r>
       <r>    -5.4642     0.0000     8.0000 </r>
       <r>    -5.3924     0.0000     8.0000 </r>
       <r>    -5.3206     0.0000     8.0000 </r>
       <r>    -5.2488     0.0000     8.0000 </r>
       <r>    -5.1771     0.0000     8.0000 </r>
       <r>    -5.1053     0.0000     8.0000 </r>
       <r>    -5.0335     0.0000     8.0000 </r>
       <r>    -4.9617     0.0000     8.0000 </r>
       <r>    -4.8899     0.0000     8.0000 </r>
       <r>    -4.8182     0.0000     8.0000 </r>
       <r>    -4.7464     0.0000     8.0000 </r>
       <r>    -4.6746     0.0000     8.0000 </r>
       <r>    -4.6028     0.0000     8.0000 </r>
       <r>    -4.5310     0.0000     8.0000 </r>
       <r>    -4.4592     0.0000     8.0000 </r>
       <r>    -4.3875     0.0000     8.0000 </r>
       <r>    -4.3157     0.0000     8.0000 </r>
       <r>    -4.2439     0.0000     8.0000 </r>
       <r>    -4.1721     0.0000     8.0000 </r>
       <r>    -4.1003     0.0000     8.0000 </r>
       <r>    -4.0286     0.0000     8.0000 </r>
       <r>    -3.9568     0.0000     8.0000 </r>
       <r>    -3.8850     0.0000     8.0000 </r>
       <r>    -3.8132     0.0000     8.0000 </r>
       <r>    -3.7414     0.0000     8.0000 </r>
       <r>    -3.6696     0.0000     8.0000 </r>
       <r>    -3.5979     0.0000     8.0000 </r>
       <r>    -3.5261     0.0000     8.0000 </r>
       <r>    -3.4543     0.0000     8.0000 </r>
       <r>    -3.3825     0.0000     8.0000 </r>
       <r>    -3.3107     0.0000     8.0000 </r>
       <r>    -3.2389     0.0000     8.0000 </r>
       <r>    -3.1672     0.0000     8.0000 </r>
       <r>    -3.0954     0.0000     8.0000 </r>
       <r>    -3.0236     0.0000     8.0000 </r>
       <r>    -2.9518     0.0000     8.0000 </r>
       <r>    -2.8800     0.0000     8.0000 </r>
       <r>    -2.8083     0.0000     8.0000 </r>
       <r>    -2.7365     0.0000     8.0000 </r>
       <r>    -2.6647     0.0000     8.0000 </r>
       <r>    -2.5929     0.1005     8.0007 </r>
       <r>    -2.5211     0.9826     8.0393 </r>
       <r>    -2.4493     1.9828     8.1445 </r>
       <r>    -2.3776     3.1839     8.3287 </r>
       <r>    -2.3058     4.9785     8.6101 </r>
       <r>    -2.2340     5.5210     8.9912 </r>
       <r>    -2.1622     5.9783     9.4044 </r>
       <r>    -2.0904     7.5313     9.9781 </r>
       <r>    -2.0187     6.4038    10.4782 </r>
       <r>    -1.9469     7.6395    10.9147 </r>
       <r>    -1.8751     7.9455    11.6477 </r>
       <r>    -1.8033     1.8151    11.9778 </r>
       <r>    -1.7315     8.8530    12.5963 </r>
       <r>    -1.6597     4.3101    13.0635 </r>
       <r>    -1.5880     2.6618    13.2772 </r>
       <r>    -1.5162     2.4314    13.4600 </r>
       <r>    -1.4444     2.2013    13.6263 </r>
       <r>    -1.3726     1.9714    13.7761 </r>
       <r>    -1.3008     1.7417    13.9093 </r>
       <r>    -1.2291     1.6715    14.0302 </r>
       <r>    -1.1573     1.6791    14.1505 </r>
       <r>    -1.0855     1.6867    14.2713 </r>
       <r>    -1.0137     1.6944    14.3926 </r>
       <r>    -0.9419     2.1472    14.5179 </r>
       <r>    -0.8701     6.2828    14.8051 </r>
       <r>    -0.7984    11.7652    15.4523 </r>
       <r>    -0.7266    10.1425    16.3385 </r>
       <r>    -0.6548     9.8113    17.0445 </r>
       <r>    -0.5830     7.3344    17.6797 </r>
       <r>    -0.5112     4.0835    18.0896 </r>
       <r>    -0.4394     2.5503    18.3052 </r>
       <r>    -0.3677     2.3131    18.4791 </r>
       <r>    -0.2959     2.1500    18.6392 </r>
       <r>    -0.2241     1.9879    18.7877 </r>
       <r>    -0.1523     1.8262    18.9246 </r>
       <r>    -0.0805    18.6303    19.5632 </r>
       <r>    -0.0088    10.8212    20.9143 </r>
       <r>     0.0630     6.7647    21.4946 </r>
       <r>     0.1348     6.7456    21.9381 </r>
       <r>     0.2066     4.7061    22.3929 </r>
       <r>     0.2784     3.7062    22.6749 </r>
       <r>     0.3502     3.5177    22.9341 </r>
       <r>     0.4219     3.3291    23.1799 </r>
       <r>     0.4937     4.2613    23.4343 </r>
       <r>     0.5655     5.1706    23.7869 </r>
       <r>     0.6373     5.0027    24.1476 </r>
       <r>     0.7091     3.4751    24.4577 </r>
       <r>     0.7808     1.8163    24.6414 </r>
       <r>     0.8526     1.7694    24.7701 </r>
       <r>     0.9244     1.7293    24.8956 </r>
       <r>     0.9962     1.6960    25.0185 </r>
       <r>     1.0680     1.6696    25.1393 </r>
       <r>     1.1398     7.4255    25.4751 </r>
       <r>     1.2115    17.6255    26.2574 </r>
       <r>     1.2833    16.7413    27.5372 </r>
       <r>     1.3551     7.7899    28.4492 </r>
       <r>     1.4269     3.4661    28.8042 </r>
       <r>     1.4987     2.9843    29.0290 </r>
       <r>     1.5705     2.9020    29.2402 </r>
       <r>     1.6422     2.9089    29.4464 </r>
       <r>     1.7140     3.2579    29.6668 </r>
       <r>     1.7858     5.1716    29.9545 </r>
       <r>     1.8576     8.3230    30.4563 </r>
       <r>     1.9294     5.5475    31.0221 </r>
       <r>     2.0011     4.6408    31.3703 </r>
       <r>     2.0729     3.5755    31.6702 </r>
       <r>     2.1447     1.9588    31.8676 </r>
       <r>     2.2165     1.9758    31.9846 </r>
       <r>     2.2883     5.0800    32.2263 </r>
       <r>     2.3601     8.0507    32.7768 </r>
       <r>     2.4318     7.3065    33.3244 </r>
       <r>     2.5036     6.7804    33.8309 </r>
       <r>     2.5754     6.2116    34.2963 </r>
       <r>     2.6472     4.4034    34.7086 </r>
       <r>     2.7190     3.8727    35.0056 </r>
       <r>     2.7907     3.3414    35.2646 </r>
       <r>     2.8625     2.9874    35.4872 </r>
       <r>     2.9343     2.5226    35.6903 </r>
       <r>     3.0061     0.9728    35.8745 </r>
       <r>     3.0779     0.8582    35.9413 </r>
       <r>     3.1497     0.3427    35.9830 </r>
       <r>     3.2214     0.0914    35.9977 </r>
       <r>     3.2932     0.0004    36.0000 </r>
       <r>     3.3650     0.0000    36.0000 </r>
       <r>     3.4368     0.0000    36.0000 </r>
       <r>     3.5086     0.0000    36.0000 </r>
       <r>     3.5803     0.0000    36.0000 </r>
       <r>     3.6521     0.0000    36.0000 </r>
       <r>     3.7239     0.0000    36.0000 </r>
       <r>     3.7957     0.0000    36.0000 </r>
       <r>     3.8675     0.0000    36.0000 </r>
       <r>     3.9393     0.0000    36.0000 </r>
       <r>     4.0110     0.0000    36.0000 </r>
       <r>     4.0828     0.0000    36.0000 </r>
       <r>     4.1546     0.0000    36.0000 </r>
       <r>     4.2264     0.0000    36.0000 </r>
       <r>     4.2982     0.0000    36.0000 </r>
       <r>     4.3700     0.0000    36.0000 </r>
       <r>     4.4417     0.0000    36.0000 </r>
       <r>     4.5135     0.0000    36.0000 </r>
       <r>     4.5853     0.0000    36.0000 </r>
       <r>     4.6571     0.0000    36.0000 </r>
       <r>     4.7289     0.0000    36.0000 </r>
       <r>     4.8006     0.0000    36.0000 </r>
       <r>     4.8724     0.0000    36.0000 </r>
       <r>     4.9442     1.2731    36.0828 </r>
       <r>     5.0160     2.4035    36.1950 </r>
       <r>     5.0878     6.0664    36.4962 </r>
       <r>     5.1596     9.8344    37.0613 </r>
       <r>     5.2313    13.4746    37.9175 </r>
       <r>     5.3031    12.0430    39.1976 </r>
       <r>     5.3749     1.9655    39.4978 </r>
       <r>     5.4467     1.5204    39.6198 </r>
       <r>     5.5185    10.8534    40.1018 </r>
       <r>     5.5902     9.4960    40.8960 </r>
       <r>     5.6620     6.8642    41.5317 </r>
       <r>     5.7338     6.5264    42.0092 </r>
       <r>     5.8056     7.6584    42.5264 </r>
       <r>     5.8774     3.6275    42.8643 </r>
       <r>     5.9492     2.6486    43.0843 </r>
       <r>     6.0209     2.2831    43.2577 </r>
       <r>     6.0927     2.1096    43.4150 </r>
       <r>     6.1645     2.4498    43.5708 </r>
       <r>     6.2363     2.2362    43.7385 </r>
       <r>     6.3081     1.4524    43.8721 </r>
       <r>     6.3798     0.6069    43.9389 </r>
       <r>     6.4516     0.3716    43.9738 </r>
       <r>     6.5234     0.1755    43.9932 </r>
       <r>     6.5952     0.0186    43.9999 </r>
       <r>     6.6670     0.0000    44.0000 </r>
       <r>     6.7388     0.0000    44.0000 </r>
       <r>     6.8105     0.0000    44.0000 </r>
       <r>     6.8823     0.0000    44.0000 </r>
       <r>     6.9541     0.0000    44.0000 </r>
       <r>     7.0259     0.0000    44.0000 </r>
       <r>     7.0977     0.0000    44.0000 </r>
       <r>     7.1695     0.0000    44.0000 </r>
       <r>     7.2412     0.0000    44.0000 </r>
       <r>     7.3130     0.0000    44.0000 </r>
       <r>     7.3848     0.0000    44.0000 </r>
       <r>     7.4566     0.0000    44.0000 </r>
       <r>     7.5284     0.0000    44.0000 </r>
       <r>     7.6001     0.0000    44.0000 </r>
       <r>     7.6719     0.0000    44.0000 </r>
       <r>     7.7437     0.0000    44.0000 </r>
       <r>     7.8155     0.0000    44.0000 </r>
       <r>     7.8873     0.0000    44.0000 </r>
       <r>     7.9591     0.0000    44.0000 </r>
       <r>     8.0308     0.0000    44.0000 </r>
       <r>     8.1026     0.0000    44.0000 </r>
       <r>     8.1744     0.0000    44.0000 </r>
       <r>     8.2462     0.0000    44.0000 </r>
       <r>     8.3180     0.0000    44.0000 </r>
       <r>     8.3897     0.0000    44.0000 </r>
       <r>     8.4615     0.0000    44.0000 </r>
       <r>     8.5333     0.0000    44.0000 </r>
       <r>     8.6051     0.0000    44.0000 </r>
      </set>
     </set>
    </array>
   </total>
  </dos>
 </calculation>
 <structure name="finalpos" >
  <crystal>
   <varray name="basis" >
    <v>       3.19031573       0.00000000       0.00000000 </v>
    <v>      -1.59515786       2.76289447       0.00000000 </v>
    <v>       0.00000000       0.00000000      14.87900430 </v>
   </varray>
   <i name="volume">    131.15106795 </i>
   <varray name="rec_basis" >
    <v>       0.31344860       0.18096963       0.00000000 </v>
    <v>       0.00000000       0.36193927       0.00000000 </v>
    <v>       0.00000000       0.00000000       0.06720880 </v>
   </varray>
  </crystal>
  <varray name="positions" >
   <v>       0.33333300       0.66666700       0.25000000 </v>
   <v>       0.66666700       0.33333300       0.75000000 </v>
   <v>       0.33333300       0.66666700       0.85517400 </v>
   <v>       0.66666700       0.33333300       0.14482600 </v>
   <v>       0.66666600       0.33333300       0.35517400 </v>
   <v>       0.33333400       0.66666700       0.64482600 </v>
  </varray>
 </structure>
</modeling>
