unknown system                          
   1.00000000000000     
     3.190316    0.000000    0.000000
    -1.595158    2.762894    0.000000
     0.000000    0.000000   26.879004
   Mo   S 
     1     2
Direct
  0.333333  0.666667  0.138389
  0.666667  0.333333  0.080169
  0.666666  0.333333  0.196608
 
   32   32  252
 0.36091     0.36446     0.37509     0.39272     0.41714     0.44794     0.48447     0.52579     0.57067     0.61750    
 0.66440     0.70933     0.75013     0.78465     0.81093     0.82743     0.83312     0.82761     0.81117     0.78481    
 0.75013     0.70918     0.66419     0.61735     0.57067     0.52591     0.48458     0.44799     0.41715     0.39272    
 0.37509     0.36446     0.36446     0.36446     0.37317     0.39052     0.41628     0.45004     0.49112     0.53854    
 0.59098     0.64672     0.70367     0.75947     0.81152     0.85721     0.89402     0.91986     0.93318     0.93321    
 0.91993     0.89414     0.85734     0.81160     0.75944     0.70357     0.64662     0.59095     0.53858     0.49117    
 0.45007     0.41629     0.39052     0.37318     0.37510     0.36993     0.37509     0.39051     0.41601     0.45117    
 0.49537     0.54763     0.60657     0.67040     0.73692     0.80353     0.86729     0.92511     0.97395      1.0111    
  1.0342      1.0420      1.0341      1.0109     0.97388     0.92519     0.86745     0.80368     0.73698     0.67036    
 0.60649     0.54758     0.49537     0.45118     0.41601     0.39052     0.39273     0.38088     0.38086     0.39271    
 0.41627     0.45116     0.49679     0.55231     0.61637     0.68714     0.76232     0.83918     0.91452     0.98485    
  1.0466      1.0965      1.1315      1.1496      1.1495      1.1313      1.0962      1.0465     0.98487     0.91467    
 0.83937     0.76242     0.68709     0.61628     0.55228     0.49681     0.45116     0.41626     0.41715     0.39726    
 0.39055     0.39719     0.41714     0.45005     0.49533     0.55224     0.61965     0.69577     0.77826     0.86430    
 0.95058      1.0332      1.1082      1.1716      1.2200      1.2504      1.2607      1.2503      1.2200      1.1716    
  1.1081      1.0331     0.95058     0.86441     0.77829     0.69572     0.61965     0.55233     0.49536     0.45000    
 0.44793     0.41886     0.40418     0.40410     0.41879     0.44801     0.49116     0.54755     0.61625     0.69572    
 0.78366     0.87724     0.97315      1.0674      1.1553      1.2325      1.2950      1.3391      1.3619      1.3619    
  1.3393      1.2953      1.2327      1.1551      1.0671     0.97309     0.87728     0.78362     0.69571     0.61638    
 0.54766     0.49109     0.48442     0.44529     0.42161     0.41357     0.42145     0.44530     0.48460     0.53860    
 0.60649     0.68707     0.77825     0.87721     0.98073      1.0849      1.1849      1.2756      1.3524      1.4110    
  1.4477      1.4602      1.4477      1.4112      1.3527      1.2756      1.1846      1.0847     0.98080     0.87720    
 0.77813     0.68712     0.60666     0.53858     0.52575     0.47597     0.44253     0.42562     0.42546     0.44236    
 0.47612     0.52592     0.59098     0.67039     0.76241     0.86434     0.97300      1.0847      1.1948      1.2978    
  1.3884      1.4618      1.5135      1.5401      1.5399      1.5132      1.4618      1.3885      1.2977      1.1947    
  1.0849     0.97316     0.86419     0.76225     0.67051     0.59110     0.57067     0.51010     0.46643     0.44005    
 0.43103     0.43977     0.46641     0.51034     0.57067     0.64665     0.73703     0.83940     0.95058      1.0671    
  1.1846      1.2977      1.4006      1.4879      1.5547      1.5966      1.6106      1.5961      1.5544      1.4879    
  1.4006      1.2976      1.1848      1.0674     0.95058     0.83908     0.73697     0.64688     0.61758     0.54665    
 0.49268     0.45650     0.43819     0.43797     0.45628     0.49287     0.54682     0.61732     0.70357     0.80372    
 0.91474      1.0332      1.1552      1.2755      1.3883      1.4877      1.5685      1.6257      1.6551      1.6549    
  1.6253      1.5686      1.4879      1.3881      1.2754      1.1554      1.0334     0.91447     0.80346     0.70379    
 0.66453     0.58425     0.52044     0.47450     0.44675     0.43725     0.44644     0.47453     0.52079     0.58421    
 0.66414     0.75940     0.86746     0.98493      1.1082      1.2327      1.3526      1.4616      1.5542      1.6253    
  1.6701      1.6852      1.6699      1.6255      1.5547      1.4616      1.3522      1.2326      1.1084     0.98489    
 0.86712     0.75944     0.70943     0.62127     0.54870     0.49348     0.45647     0.43770     0.43746     0.45625    
 0.49378     0.54899     0.62102     0.70914     0.81154     0.92514      1.0465      1.1717      1.2954      1.4113    
  1.5133      1.5961      1.6548      1.6851      1.6850      1.6548      1.5966      1.5136      1.4109      1.2950    
  1.1718      1.0467     0.92493     0.81134     0.75013     0.65593     0.57617     0.51272     0.46698     0.43932    
 0.42981     0.43895     0.46698     0.51310     0.57622     0.65561     0.75013     0.85729     0.97379      1.0962    
  1.2200      1.3394      1.4480      1.5401      1.6106      1.6549      1.6698      1.6546      1.6106      1.5404    
  1.4479      1.3390      1.2200      1.0966     0.97387     0.85698     0.78457     0.68641     0.60138     0.53126    
 0.47780     0.44191     0.42367     0.42340     0.44161     0.47800     0.53150     0.60117     0.68622     0.78486    
 0.89415      1.0108      1.1312      1.2503      1.3620      1.4603      1.5402      1.5966      1.6256      1.6252    
  1.5961      1.5402      1.4605      1.3617      1.2501      1.1315      1.0111     0.89390     0.81085     0.71103    
 0.62284     0.54799     0.48828     0.44513     0.41898     0.40999     0.41863     0.44508     0.48855     0.54796    
 0.62252     0.71107     0.81125     0.92001      1.0341      1.1494      1.2605      1.3617      1.4477      1.5135    
  1.5549      1.5687      1.5544      1.5133      1.4479      1.3618      1.2604      1.1495      1.0344     0.91993    
 0.82740     0.72836     0.63922     0.56177     0.49767     0.44861     0.41555     0.39876     0.39858     0.41538    
 0.44882     0.49784     0.56151     0.63897     0.72856     0.82767     0.93333      1.0421      1.1496      1.2502    
  1.3389      1.4108      1.4618      1.4881      1.4879      1.4617      1.4112      1.3392      1.2501      1.1494    
  1.0422     0.93340     0.83312     0.73736     0.64947     0.57155     0.50515     0.45194     0.41326     0.38976    
 0.38172     0.38957     0.41333     0.45222     0.50515     0.57125     0.64938     0.73753     0.83312     0.93329    
  1.0344      1.1317      1.2200      1.2949      1.3523      1.3884      1.4006      1.3883      1.3525      1.2953    
  1.2200      1.1313      1.0342     0.93343     0.82758     0.73742     0.65293     0.57658     0.50997     0.45459    
 0.41196     0.38306     0.36835     0.36821     0.38294     0.41213     0.45477     0.50985     0.57643     0.65300    
 0.73744     0.82733     0.91986      1.0112      1.0967      1.1718      1.2326      1.2755      1.2976      1.2975    
  1.2754      1.2328      1.1718      1.0964      1.0109     0.92000     0.81110     0.72847     0.64939     0.57650    
 0.51160     0.45607     0.41134     0.37866     0.35870     0.35185     0.35848     0.37860     0.41148     0.45609    
 0.51151     0.57657     0.64955     0.72836     0.81077     0.89390     0.97396      1.0467      1.1084      1.1554    
  1.1848      1.1946      1.1845      1.1552      1.1084      1.0466     0.97380     0.89402     0.78474     0.71107    
 0.63907     0.57137     0.50992     0.45609     0.41117     0.37645     0.35284     0.34078     0.34065     0.35266    
 0.37646     0.41121     0.45599     0.50990     0.57159     0.63926     0.71097     0.78452     0.85702     0.92498    
 0.98484      1.0333      1.0674      1.0850      1.0848      1.0672      1.0333     0.98492     0.92501     0.85711    
 0.75013     0.68634     0.62269     0.56162     0.50516     0.45470     0.41138     0.37640     0.35079     0.33514    
 0.32980     0.33503     0.35078     0.37648     0.41131     0.45451     0.50515     0.56183     0.62284     0.68635    
 0.75013     0.81140     0.86712     0.91440     0.95058     0.97327     0.98089     0.97311     0.95058     0.91462    
 0.86728     0.81141     0.70927     0.65580     0.60130     0.54797     0.49776     0.45213     0.41207     0.37858    
 0.35268     0.33506     0.32610     0.32606     0.33507     0.35283     0.37867     0.41192     0.45191     0.49772    
 0.54803     0.60134     0.65590     0.70947     0.75947     0.80342     0.83906     0.86427     0.87728     0.87725    
 0.86430     0.83928     0.80360     0.75940     0.66431     0.62115     0.57622     0.53138     0.48840     0.44874    
 0.41337     0.38304     0.35857     0.34068     0.32975     0.32603     0.32970     0.34075     0.35874     0.38308    
 0.41324     0.44862     0.48833     0.53125     0.57612     0.62128     0.66458     0.70379     0.73693     0.76226    
 0.77818     0.78358     0.77816     0.76235     0.73703     0.70367     0.61743     0.58421     0.54886     0.51292    
 0.47788     0.44508     0.41549     0.38972     0.36833     0.35188     0.34074     0.33505     0.33496     0.34062    
 0.35191     0.36841     0.38975     0.41552     0.44514     0.47782     0.51268     0.54867     0.58427     0.61760    
 0.64685     0.67048     0.68713     0.69570     0.69564     0.68706     0.67046     0.64677     0.57067     0.54671    
 0.52061     0.49366     0.46699     0.44173     0.41877     0.39866     0.38173     0.36831     0.35867     0.35283    
 0.35079     0.35266     0.35853     0.36828     0.38172     0.39870     0.41895     0.44193     0.46698     0.49345    
 0.52044     0.54668     0.57067     0.59106     0.60665     0.61640     0.61965     0.61627     0.60656     0.59106    
 0.52585     0.51021     0.49276     0.47453     0.45639     0.43915     0.42353     0.40997     0.39863     0.38961    
 0.38300     0.37871     0.37656     0.37650     0.37862     0.38296     0.38956     0.39852     0.40994     0.42370    
 0.43936     0.45646     0.47448     0.49270     0.51012     0.52573     0.53855     0.54767     0.55235     0.55228    
 0.54758     0.53859     0.48452     0.47604     0.46640     0.45638     0.44661     0.43760     0.42984     0.42358    
 0.41883     0.41543     0.41322     0.41200     0.41143     0.41126     0.41146     0.41210     0.41332     0.41535    
 0.41861     0.42343     0.42986     0.43772     0.44673     0.45650     0.46646     0.47597     0.48439     0.49109    
 0.49538     0.49682     0.49533     0.49112     0.44796     0.44529     0.44243     0.43989     0.43807     0.43723    
 0.43758     0.43917     0.44183     0.44516     0.44871     0.45202     0.45461     0.45602     0.45604     0.45471    
 0.45220     0.44884     0.44510     0.44164     0.43899     0.43748     0.43722     0.43816     0.44006     0.44254    
 0.44527     0.44790     0.45001     0.45116     0.45115     0.45001     0.41714     0.41882     0.42152     0.42553    
 0.43103     0.43806     0.44656     0.45632     0.46699     0.47796     0.48849     0.49781     0.50516     0.50985    
 0.51143     0.50980     0.50515     0.49790     0.48860     0.47802     0.46698     0.45624     0.44641     0.43795    
 0.43103     0.42563     0.42161     0.41884     0.41714     0.41627     0.41600     0.41626     0.39272     0.39722    
 0.40414     0.41357     0.42554     0.43992     0.45639     0.47448     0.49357     0.51287     0.53138     0.54803    
 0.56173     0.57148     0.57651     0.57643     0.57130     0.56158     0.54800     0.53150     0.51307     0.49374    
 0.47451     0.45628     0.43978     0.42547     0.41358     0.40418     0.39725     0.39274     0.39052     0.39051    
 0.37509     0.38087     0.39054     0.40413     0.42152     0.44246     0.46645     0.49281     0.52061     0.54880    
 0.57612     0.60122     0.62269     0.63917     0.64955     0.65308     0.64947     0.63902     0.62252     0.60114    
 0.57617     0.54896     0.52079     0.49290     0.46644     0.44238     0.42145     0.40410     0.39055     0.38088    
 0.37510     0.37317     0.36445     0.36993     0.38086     0.39721     0.41880     0.44527     0.47603     0.51025    
 0.54679     0.58428     0.62115     0.65572     0.68623     0.71098     0.72846     0.73756     0.73761     0.72857    
 0.71102     0.68616     0.65558     0.62102     0.58424     0.54686     0.51037     0.47612     0.44528     0.41877    
 0.39719     0.38086     0.36993     0.36445     0.47076     0.47583     0.49106     0.51637     0.55159     0.59625    
 0.64955     0.71026     0.77660     0.84623     0.91633     0.98372      1.0450      1.0970      1.1365      1.1614    
  1.1699      1.1616      1.1368      1.0971      1.0450     0.98355     0.91610     0.84608     0.77661     0.71038    
 0.64967     0.59630     0.55160     0.51637     0.49106     0.47583     0.47584     0.47584     0.48833     0.51323    
 0.55037     0.59928     0.65916     0.72876     0.80626     0.88919     0.97445      1.0584      1.1370      1.2062    
  1.2621      1.3014      1.3217      1.3217      1.3015      1.2622      1.2064      1.1371      1.0584     0.97434    
 0.88908     0.80623     0.72880     0.65921     0.59931     0.55038     0.51324     0.48833     0.49107     0.48366    
 0.49106     0.51323     0.54999     0.60092     0.66530     0.74192     0.82899     0.92400      1.0237      1.1242    
  1.2209      1.3090      1.3837      1.4405      1.4761      1.4881      1.4759      1.4403      1.3836      1.3091    
  1.2211      1.1244      1.0238     0.92395     0.82890     0.74187     0.66529     0.60093     0.54999     0.51324    
 0.51639     0.49932     0.49930     0.51636     0.55036     0.60091     0.66736     0.74871     0.84326     0.94855    
  1.0613      1.1775      1.2921      1.3997      1.4947      1.5716      1.6258      1.6538      1.6537      1.6256    
  1.5714      1.4946      1.3997      1.2922      1.1777      1.0614     0.94850     0.84316     0.74868     0.66739    
 0.60090     0.55035     0.55160     0.52284     0.51318     0.52277     0.55159     0.59929     0.66525     0.74864    
 0.84806     0.96120      1.0849      1.2150      1.3464      1.4733      1.5891      1.6875      1.7629      1.8102    
  1.8263      1.8102      1.7629      1.6876      1.5890      1.4731      1.3464      1.2151      1.0849     0.96115    
 0.84806     0.74873     0.66528     0.59924     0.59623     0.55402     0.53277     0.53269     0.55394     0.59632    
 0.65920     0.74184     0.84313     0.96115      1.0929      1.2343      1.3804      1.5251      1.6613      1.7817    
  1.8795      1.9487      1.9846      1.9846      1.9489      1.8799      1.7819      1.6611      1.5249      1.3804    
  1.2343      1.0928     0.96114     0.84327     0.74195     0.65913     0.64951     0.59242     0.55798     0.54635    
 0.55781     0.59242     0.64970     0.72881     0.82890     0.94847      1.0848      1.2342      1.3919      1.5518    
  1.7067      1.8483      1.9690      2.0614      2.1196      2.1394      2.1196      2.0616      1.9693      1.8483    
  1.7064      1.5517      1.3920      1.2342      1.0847     0.94852     0.82908     0.72880     0.71021     0.63730    
 0.58846     0.56385     0.56368     0.58829     0.63745     0.71040     0.80626     0.92398      1.0614      1.2150    
  1.3803      1.5517      1.7220      1.8827      2.0252      2.1412      2.2233      2.2657      2.2654      2.2230    
  2.1412      2.0253      1.8826      1.7219      1.5519      1.3804      1.2148      1.0612     0.92411     0.80638    
 0.77661     0.68755     0.62357     0.58502     0.57195     0.58473     0.62354     0.68781     0.77660     0.88911    
  1.0238      1.1777      1.3464      1.5249      1.7064      1.8826      2.0443      2.1823      2.2885      2.3552    
  2.3777      2.3547      2.2881      2.1824      2.0442      1.8825      1.7066      1.5252      1.3464      1.1774    
  1.0238     0.88936     0.84632     0.74163     0.66238     0.60939     0.58269     0.58246     0.60916     0.66258    
 0.74182     0.84606     0.97434      1.1244      1.2923      1.4732      1.6612      1.8483      2.0251      2.1821    
  2.3104      2.4015      2.4486      2.4483      2.4011      2.3105      2.1823      2.0249      1.8481      1.6614    
  1.4734      1.2920      1.1241     0.97457     0.91646     0.79750     0.70361     0.63625     0.59570     0.58192    
 0.59537     0.63628     0.70397     0.79747     0.91606      1.0583      1.2211      1.3998      1.5891      1.7819    
  1.9692      2.1410      2.2879      2.4011      2.4725      2.4968      2.4724      2.4013      2.2885      2.1411    
  1.9688      1.7818      1.5893      1.3998      1.2207      1.0584     0.98381     0.85267     0.74565     0.66467    
 0.61056     0.58327     0.58301     0.61033     0.66498     0.74595     0.85241     0.98351      1.1370      1.3090    
  1.4946      1.6876      1.8800      2.0618      2.2231      2.3547      2.4482      2.4967      2.4965      2.4483    
  2.3552      2.2234      2.0614      1.8795      1.6877      1.4948      1.3088      1.1368      1.0450     0.90442    
 0.78652     0.69344     0.62665     0.58641     0.57269     0.58602     0.62665     0.69385     0.78656     0.90408    
  1.0450      1.2063      1.3835      1.5713      1.7629      1.9491      2.1198      2.2656      2.3777      2.4483    
  2.4722      2.4480      2.3777      2.2660      2.1197      1.9486      1.7629      1.5717      1.3836      1.2060    
  1.0969     0.94998     0.82398     0.72107     0.64310     0.59095     0.56460     0.56432     0.59064     0.64331    
 0.72132     0.82376     0.94978      1.0972      1.2623      1.4403      1.6255      1.8101      1.9847      2.1395    
  2.2658      2.3552      2.4014      2.4010      2.3547      2.2658      2.1396      1.9844      1.8100      1.6258    
  1.4406      1.2620      1.1365     0.98678     0.85585     0.74587     0.65887     0.59630     0.55855     0.54569    
 0.55819     0.59626     0.65915     0.74583     0.85551     0.98683      1.1369      1.3016      1.4759      1.6536    
  1.8262      1.9844      2.1195      2.2233      2.2886      2.3106      2.2881      2.2231      2.1197      1.9845    
  1.8260      1.6537      1.4763      1.3015      1.1613      1.0127     0.88014     0.76619     0.67282     0.60185    
 0.55422     0.53015     0.52995     0.55403     0.60206     0.67300     0.76592     0.87988      1.0129      1.1616    
  1.3218      1.4882      1.6538      1.8100      1.9485      2.0613      2.1412      2.1826      2.1824      2.1411    
  2.0616      1.9488      1.8099      1.6536      1.4883      1.3219      1.1699      1.0261     0.89534     0.78057    
 0.68382     0.60693     0.55135     0.51769     0.50627     0.51750     0.55142     0.60723     0.68381     0.78026    
 0.89525      1.0263      1.1699      1.3218      1.4763      1.6260      1.7629      1.8794      1.9689      2.0251    
  2.0443      2.0251      1.9691      1.8799      1.7629      1.6256      1.4761      1.3219      1.1615      1.0262    
 0.90049     0.78798     0.69084     0.61086     0.54969     0.50839     0.48746     0.48732     0.50826     0.54987    
 0.61104     0.69072     0.78782     0.90056      1.0262      1.1613      1.3014      1.4407      1.5718      1.6877    
  1.7818      1.8482      1.8825      1.8824      1.8482      1.7820      1.6878      1.5715      1.4404      1.3016    
  1.1367      1.0128     0.89526     0.78790     0.69322     0.61299     0.54888     0.50224     0.47384     0.46416    
 0.47362     0.50217     0.54902     0.61302     0.69313     0.78797     0.89543      1.0127      1.1364      1.2620    
  1.3837      1.4948      1.5893      1.6614      1.7066      1.7218      1.7063      1.6612      1.5893      1.4947    
  1.3835      1.2621      1.0971     0.98683     0.87999     0.78039     0.69079     0.61302     0.54864     0.49913    
 0.46555     0.44847     0.44833     0.46536     0.49914     0.54868     0.61292     0.69077     0.78061     0.88019    
 0.98673      1.0968      1.2060      1.3089      1.3997      1.4734      1.5252      1.5519      1.5517      1.5250    
  1.4733      1.3998      1.3089      1.2061      1.0450     0.94991     0.85568     0.76603     0.68382     0.61097    
 0.54891     0.49907     0.46267     0.44047     0.43292     0.44035     0.46267     0.49916     0.54884     0.61077    
 0.68381     0.76625     0.85584     0.94991      1.0450      1.1369      1.2207      1.2920      1.3464      1.3805    
  1.3921      1.3804      1.3464      1.2922      1.2209      1.1369     0.98365     0.90428     0.82390     0.74584    
 0.67292     0.60713     0.54980     0.50215     0.46538     0.44038     0.42769     0.42765     0.44040     0.46554    
 0.50224     0.54964     0.60690     0.67287     0.74591     0.82394     0.90439     0.98386      1.0584      1.1241    
  1.1773      1.2149      1.2343      1.2343      1.2149      1.1776      1.1243      1.0583     0.91623     0.85255    
 0.78657     0.72119     0.65900     0.60198     0.55146     0.50837     0.47371     0.44836     0.43287     0.42761    
 0.43282     0.44843     0.47389     0.50841     0.55132     0.60186     0.65892     0.72106     0.78647     0.85268    
 0.91651     0.97457      1.0237      1.0612      1.0848      1.0928      1.0848      1.0613      1.0238     0.97445    
 0.84616     0.79746     0.74582     0.69366     0.64318     0.59625     0.55415     0.51765     0.48744     0.46420    
 0.44842     0.44037     0.44028     0.44830     0.46422     0.48753     0.51768     0.55418     0.59632     0.64312    
 0.69341     0.74562     0.79753     0.84635     0.88933     0.92408     0.94854     0.96113     0.96107     0.94846    
 0.92406     0.88925     0.77660     0.74170     0.70379     0.66485     0.62665     0.59076     0.55834     0.53004    
 0.50628     0.48743     0.47381     0.46554     0.46267     0.46537     0.47367     0.48739     0.50627     0.53008    
 0.55852     0.59097     0.62665     0.66464     0.70361     0.74167     0.77660     0.80634     0.82907     0.84329    
 0.84806     0.84316     0.82898     0.80634     0.71032     0.68767     0.66246     0.63628     0.61048     0.58623    
 0.56445     0.54567     0.53001     0.51754     0.50832     0.50228     0.49925     0.49919     0.50219     0.50829    
 0.51749     0.52989     0.54564     0.56463     0.58645     0.61055     0.63623     0.66240     0.68758     0.71019    
 0.72877     0.74197     0.74876     0.74869     0.74187     0.72881     0.64961     0.63737     0.62354     0.60927    
 0.59554     0.58316     0.57272     0.56450     0.55839     0.55409     0.55130     0.54973     0.54897     0.54874    
 0.54900     0.54983     0.55140     0.55401     0.55816     0.56435     0.57275     0.58328     0.59567     0.60939    
 0.62360     0.63730     0.64947     0.65912     0.66530     0.66739     0.66525     0.65916     0.59627     0.59242    
 0.58836     0.58486     0.58256     0.58190     0.58314     0.58625     0.59087     0.59634     0.60196     0.60702    
 0.61087     0.61294     0.61297     0.61098     0.60721     0.60208     0.59628     0.59066     0.58606     0.58303    
 0.58189     0.58266     0.58503     0.58847     0.59240     0.59621     0.59924     0.60091     0.60089     0.59925    
 0.55159     0.55397     0.55788     0.56376     0.57194     0.58255     0.59549     0.61041     0.62665     0.64327    
 0.65909     0.67297     0.68382     0.69071     0.69305     0.69066     0.68382     0.67306     0.65921     0.64333    
 0.62665     0.61032     0.59534     0.58243     0.57195     0.56387     0.55798     0.55400     0.55159     0.55036    
 0.54998     0.55035     0.51637     0.52280     0.53272     0.54634     0.56378     0.58489     0.60927     0.63623    
 0.66477     0.69360     0.72120     0.74591     0.76615     0.78050     0.78791     0.78782     0.78031     0.76599    
 0.74588     0.72131     0.69381     0.66495     0.63626     0.60915     0.58474     0.56370     0.54636     0.53276    
 0.52283     0.51639     0.51324     0.51323     0.49106     0.49931     0.51317     0.53271     0.55788     0.58839    
 0.62359     0.66251     0.70379     0.74576     0.78647     0.82382     0.85568     0.88009     0.89543     0.90064    
 0.89534     0.87993     0.85551     0.82373     0.78652     0.74592     0.70397     0.66261     0.62357     0.58830    
 0.55781     0.53268     0.51318     0.49932     0.49107     0.48832     0.47583     0.48365     0.49930     0.52279    
 0.55395     0.59239     0.63737     0.68771     0.74178     0.79753     0.85254     0.90420     0.94979     0.98673    
  1.0128      1.0263      1.0264      1.0129     0.98678     0.94972     0.90405     0.85241     0.79749     0.74186    
 0.68784     0.63746     0.59241     0.55393     0.52277     0.49930     0.48365     0.47583     0.61073     0.61800    
 0.63983     0.67620     0.72694     0.79161     0.86927     0.95834      1.0564      1.1600      1.2649      1.3663    
  1.4588      1.5374      1.5974      1.6350      1.6479      1.6352      1.5976      1.5376      1.4588      1.3661    
  1.2647      1.1598      1.0564     0.95847     0.86940     0.79166     0.72695     0.67620     0.63983     0.61800    
 0.61801     0.61801     0.63593     0.67173     0.72525     0.79604     0.88321     0.98523      1.0997      1.2231    
  1.3508      1.4774      1.5965      1.7017      1.7870      1.8470      1.8780      1.8780      1.8470      1.7871    
  1.7019      1.5966      1.4774      1.3507      1.2230      1.0996     0.98527     0.88326     0.79607     0.72526    
 0.67174     0.63593     0.63984     0.62920     0.63983     0.67173     0.72473     0.79845     0.89213      1.0044    
  1.1329      1.2742      1.4237      1.5754      1.7223      1.8567      1.9710      2.0583      2.1130      2.1316    
  2.1128      2.0581      1.9709      1.8568      1.7225      1.5756      1.4238      1.2741      1.1328      1.0043    
 0.89212     0.79846     0.72473     0.67173     0.67621     0.65164     0.65161     0.67618     0.72524     0.79844    
 0.89515      1.0143      1.1537      1.3102      1.4793      1.6547      1.8291      1.9937      2.1396      2.2581    
  2.3417      2.3850      2.3848      2.3415      2.2578      2.1395      1.9937      1.8292      1.6549      1.4794    
  1.3102      1.1536      1.0142     0.89518     0.79843     0.72523     0.72695     0.68539     0.67147     0.68532    
 0.72694     0.79605     0.89208      1.0142      1.1607      1.3288      1.5141      1.7105      1.9105      2.1048    
  2.2830      2.4351      2.5516      2.6249      2.6499      2.6248      2.5516      2.4351      2.2829      2.1046    
  1.9105      1.7106      1.5141      1.3287      1.1607      1.0143     0.89211     0.79600     0.79159     0.73034    
 0.69960     0.69952     0.73026     0.79168     0.88326      1.0043      1.1536      1.3287      1.5259      1.7393    
  1.9615      2.1831      2.3927      2.5789      2.7305      2.8378      2.8934      2.8934      2.8380      2.7308    
  2.5790      2.3925      2.1828      1.9615      1.7393      1.5258      1.3287      1.1537      1.0044     0.88318    
 0.86922     0.78602     0.73599     0.71917     0.73581     0.78603     0.86942     0.98528      1.1328      1.3101    
  1.5140      1.7393      1.9788      2.2234      2.4616      2.6805      2.8675      3.0110      3.1013      3.1321    
  3.1013      3.0113      2.8679      2.6805      2.4613      2.2233      1.9789      1.7393      1.5139      1.3102    
  1.1330     0.98526     0.95829     0.85155     0.78030     0.74453     0.74435     0.78012     0.85171     0.95848    
  1.0997      1.2742      1.4794      1.7106      1.9614      2.2232      2.4849      2.7330      2.9536      3.1335    
  3.2609      3.3268      3.3265      3.2606      3.1336      2.9538      2.7329      2.4848      2.2234      1.9616    
  1.7104      1.4792      1.2743      1.0998      1.0564     0.92543     0.83173     0.77546     0.75649     0.77515    
 0.83170     0.92569      1.0564      1.2230      1.4238      1.6550      1.9105      2.1828      2.4613      2.7329    
  2.9829      3.1968      3.3612      3.4646      3.4996      3.4641      3.3608      3.1969      2.9829      2.7328    
  2.4615      2.1832      1.9105      1.6546      1.4237      1.2233      1.1601      1.0054     0.88897     0.81137    
 0.77243     0.77219     0.81113     0.88918      1.0056      1.1598      1.3507      1.5756      1.8293      2.1047    
  2.3926      2.6805      2.9536      3.1966      3.3951      3.5358      3.6087      3.6084      3.5355      3.3952    
  3.1968      2.9534      2.6803      2.3928      2.1049      1.8290      1.5753      1.3510      1.2651      1.0885    
 0.95010     0.85123     0.79192     0.77190     0.79157     0.85126     0.95048      1.0885      1.2646      1.4773    
  1.7225      1.9938      2.2830      2.5791      2.8678      3.1334      3.3606      3.5355      3.6457      3.6831    
  3.6455      3.5357      3.3612      3.1334      2.8673      2.5789      2.2833      1.9937      1.7221      1.4774    
  1.3664      1.1709      1.0126     0.89358     0.81433     0.77454     0.77427     0.81408     0.89390      1.0130    
  1.1706      1.3661      1.5965      1.8567      2.1394      2.4351      2.7309      3.0114      3.2607      3.4641    
  3.6083      3.6830      3.6828      3.6083      3.4646      3.2610      3.0110      2.7305      2.4353      2.1397    
  1.8565      1.5963      1.4588      1.2484      1.0735     0.93650     0.83866     0.77996     0.76011     0.77955    
 0.83866     0.93693      1.0736      1.2481      1.4588      1.7018      1.9708      2.2578      2.5516      2.8381    