   3   3   0   0
  0.7897505E+02  0.3190316E-09  0.3190316E-09  0.2687900E-08  0.5000000E-15
  1.000000000000000E-004
  CAR 
 unknown system                          
      6.10155183    -19.46356761  301     -3.42145516      1.00000000
    -19.464  0.0000E+00  0.0000E+00
    -19.378  0.0000E+00  0.0000E+00
    -19.293  0.0000E+00  0.0000E+00
    -19.208  0.0000E+00  0.0000E+00
    -19.123  0.0000E+00  0.0000E+00
    -19.037  0.0000E+00  0.0000E+00
    -18.952  0.0000E+00  0.0000E+00
    -18.867  0.0000E+00  0.0000E+00
    -18.782  0.0000E+00  0.0000E+00
    -18.697  0.0000E+00  0.0000E+00
    -18.611  0.0000E+00  0.0000E+00
    -18.526  0.0000E+00  0.0000E+00
    -18.441  0.0000E+00  0.0000E+00
    -18.356  0.0000E+00  0.0000E+00
    -18.271  0.0000E+00  0.0000E+00
    -18.185  0.0000E+00  0.0000E+00
    -18.100  0.0000E+00  0.0000E+00
    -18.015  0.0000E+00  0.0000E+00
    -17.930  0.0000E+00  0.0000E+00
    -17.844  0.0000E+00  0.0000E+00
    -17.759  0.0000E+00  0.0000E+00
    -17.674  0.0000E+00  0.0000E+00
    -17.589  0.0000E+00  0.0000E+00
    -17.504  0.0000E+00  0.0000E+00
    -17.418  0.1848E+00  0.4178E-02
    -17.333  0.5332E+00  0.3477E-01
    -17.248  0.4780E+00  0.9446E-01
    -17.163  0.5175E+00  0.1369E+00
    -17.077  0.5570E+00  0.1827E+00
    -16.992  0.5965E+00  0.2318E+00
    -16.907  0.6360E+00  0.2843E+00
    -16.822  0.6622E+00  0.3400E+00
    -16.737  0.6693E+00  0.3967E+00
    -16.651  0.6854E+00  0.4542E+00
    -16.566  0.7184E+00  0.5140E+00
    -16.481  0.7514E+00  0.5766E+00
    -16.396  0.7844E+00  0.6420E+00
    -16.311  0.8174E+00  0.7103E+00
    -16.225  0.1390E+01  0.7895E+00
    -16.140  0.2062E+01  0.9711E+00
    -16.055  0.2357E+01  0.1159E+01
    -15.970  0.2676E+01  0.1373E+01
    -15.884  0.2892E+01  0.1611E+01
    -15.799  0.3230E+01  0.1872E+01
    -15.714  0.3569E+01  0.2161E+01
    -15.629  0.4221E+01  0.2618E+01
    -15.544  0.4243E+01  0.2976E+01
    -15.458  0.3767E+01  0.3367E+01
    -15.373  0.3346E+01  0.3777E+01
    -15.288  0.0000E+00  0.4000E+01
    -15.203  0.0000E+00  0.4000E+01
    -15.117  0.0000E+00  0.4000E+01
    -15.032  0.0000E+00  0.4000E+01
    -14.947  0.0000E+00  0.4000E+01
    -14.862  0.0000E+00  0.4000E+01
    -14.777  0.0000E+00  0.4000E+01
    -14.691  0.0000E+00  0.4000E+01
    -14.606  0.0000E+00  0.4000E+01
    -14.521  0.0000E+00  0.4000E+01
    -14.436  0.0000E+00  0.4000E+01
    -14.351  0.0000E+00  0.4000E+01
    -14.265  0.0000E+00  0.4000E+01
    -14.180  0.0000E+00  0.4000E+01
    -14.095  0.0000E+00  0.4000E+01
    -14.010  0.0000E+00  0.4000E+01
    -13.924  0.0000E+00  0.4000E+01
    -13.839  0.0000E+00  0.4000E+01
    -13.754  0.0000E+00  0.4000E+01
    -13.669  0.0000E+00  0.4000E+01
    -13.584  0.0000E+00  0.4000E+01
    -13.498  0.0000E+00  0.4000E+01
    -13.413  0.0000E+00  0.4000E+01
    -13.328  0.0000E+00  0.4000E+01
    -13.243  0.0000E+00  0.4000E+01
    -13.158  0.0000E+00  0.4000E+01
    -13.072  0.0000E+00  0.4000E+01
    -12.987  0.0000E+00  0.4000E+01
    -12.902  0.0000E+00  0.4000E+01
    -12.817  0.0000E+00  0.4000E+01
    -12.731  0.0000E+00  0.4000E+01
    -12.646  0.0000E+00  0.4000E+01
    -12.561  0.0000E+00  0.4000E+01
    -12.476  0.0000E+00  0.4000E+01
    -12.391  0.0000E+00  0.4000E+01
    -12.305  0.0000E+00  0.4000E+01
    -12.220  0.0000E+00  0.4000E+01
    -12.135  0.0000E+00  0.4000E+01
    -12.050  0.0000E+00  0.4000E+01
    -11.964  0.0000E+00  0.4000E+01
    -11.879  0.0000E+00  0.4000E+01
    -11.794  0.0000E+00  0.4000E+01
    -11.709  0.0000E+00  0.4000E+01
    -11.624  0.0000E+00  0.4000E+01
    -11.538  0.0000E+00  0.4000E+01
    -11.453  0.0000E+00  0.4000E+01
    -11.368  0.0000E+00  0.4000E+01
    -11.283  0.0000E+00  0.4000E+01
    -11.198  0.0000E+00  0.4000E+01
    -11.112  0.0000E+00  0.4000E+01
    -11.027  0.0000E+00  0.4000E+01
    -10.942  0.0000E+00  0.4000E+01
    -10.857  0.0000E+00  0.4000E+01
    -10.771  0.0000E+00  0.4000E+01
    -10.686  0.0000E+00  0.4000E+01
    -10.601  0.0000E+00  0.4000E+01
    -10.516  0.0000E+00  0.4000E+01
    -10.431  0.0000E+00  0.4000E+01
    -10.345  0.0000E+00  0.4000E+01
    -10.260  0.0000E+00  0.4000E+01
    -10.175  0.0000E+00  0.4000E+01
    -10.090  0.0000E+00  0.4000E+01
    -10.004  0.0000E+00  0.4000E+01
     -9.919  0.0000E+00  0.4000E+01
     -9.834  0.0000E+00  0.4000E+01
     -9.749  0.0000E+00  0.4000E+01
     -9.664  0.0000E+00  0.4000E+01
     -9.578  0.0000E+00  0.4000E+01
     -9.493  0.0000E+00  0.4000E+01
     -9.408  0.0000E+00  0.4000E+01
     -9.323  0.0000E+00  0.4000E+01
     -9.238  0.0000E+00  0.4000E+01
     -9.152  0.0000E+00  0.4000E+01
     -9.067  0.4709E+00  0.4018E+01
     -8.982  0.1004E+01  0.4081E+01
     -8.897  0.1799E+01  0.4200E+01
     -8.811  0.2633E+01  0.4397E+01
     -8.726  0.2850E+01  0.4638E+01
     -8.641  0.3819E+01  0.4954E+01
     -8.556  0.3154E+01  0.5251E+01
     -8.471  0.4942E+01  0.5522E+01
     -8.385  0.3794E+01  0.5977E+01
     -8.300  0.5246E+01  0.6169E+01
     -8.215  0.2724E+01  0.6500E+01
     -8.130  0.1327E+01  0.6639E+01
     -8.044  0.1192E+01  0.6746E+01
     -7.959  0.1056E+01  0.6842E+01
     -7.874  0.9205E+00  0.6926E+01
     -7.789  0.8328E+00  0.6999E+01
     -7.704  0.8376E+00  0.7071E+01
     -7.618  0.8423E+00  0.7142E+01
     -7.533  0.8471E+00  0.7214E+01
     -7.448  0.1893E+01  0.7303E+01
     -7.363  0.4849E+01  0.7590E+01
     -7.278  0.5170E+01  0.8124E+01
     -7.192  0.5142E+01  0.8545E+01
     -7.107  0.3251E+01  0.8902E+01
     -7.022  0.1442E+01  0.9100E+01
     -6.937  0.1186E+01  0.9208E+01
     -6.851  0.1090E+01  0.9305E+01
     -6.766  0.9941E+00  0.9394E+01
     -6.681  0.8980E+00  0.9474E+01
     -6.596  0.1172E+02  0.1006E+02
     -6.511  0.3824E+01  0.1064E+02
     -6.425  0.2387E+01  0.1090E+02
     -6.340  0.2381E+01  0.1119E+02
     -6.255  0.1838E+01  0.1135E+02
     -6.170  0.1726E+01  0.1151E+02
     -6.084  0.1614E+01  0.1165E+02
     -5.999  0.3525E+01  0.1181E+02
     -5.914  0.2155E+01  0.1206E+02
     -5.829  0.1683E+01  0.1224E+02
     -5.744  0.8722E+00  0.1234E+02
     -5.658  0.8658E+00  0.1241E+02
     -5.573  0.8593E+00  0.1248E+02
     -5.488  0.8529E+00  0.1256E+02
     -5.403  0.3738E+01  0.1274E+02
     -5.318  0.9316E+01  0.1325E+02
     -5.232  0.6991E+01  0.1397E+02
     -5.147  0.1833E+01  0.1435E+02
     -5.062  0.1498E+01  0.1449E+02
     -4.977  0.1451E+01  0.1461E+02
     -4.891  0.1477E+01  0.1473E+02
     -4.806  0.1660E+01  0.1487E+02
     -4.721  0.4342E+01  0.1504E+02
     -4.636  0.3259E+01  0.1543E+02
     -4.551  0.2295E+01  0.1564E+02
     -4.465  0.2702E+01  0.1585E+02
     -4.380  0.6635E+00  0.1599E+02
     -4.295  0.1390E+01  0.1603E+02
     -4.210  0.4227E+01  0.1628E+02
     -4.124  0.3710E+01  0.1661E+02
     -4.039  0.3392E+01  0.1692E+02
     -3.954  0.3027E+01  0.1719E+02
     -3.869  0.2111E+01  0.1741E+02
     -3.784  0.1797E+01  0.1758E+02
     -3.698  0.1483E+01  0.1772E+02
     -3.613  0.1170E+01  0.1783E+02
     -3.528  0.8462E+00  0.1796E+02
     -3.443  0.1031E-01  0.1800E+02
     -3.358  0.0000E+00  0.1800E+02
     -3.272  0.0000E+00  0.1800E+02
     -3.187  0.0000E+00  0.1800E+02
     -3.102  0.0000E+00  0.1800E+02
     -3.017  0.0000E+00  0.1800E+02
     -2.931  0.0000E+00  0.1800E+02
     -2.846  0.0000E+00  0.1800E+02
     -2.761  0.0000E+00  0.1800E+02
     -2.676  0.0000E+00  0.1800E+02
     -2.591  0.0000E+00  0.1800E+02
     -2.505  0.0000E+00  0.1800E+02
     -2.420  0.0000E+00  0.1800E+02
     -2.335  0.0000E+00  0.1800E+02
     -2.250  0.0000E+00  0.1800E+02
     -2.165  0.0000E+00  0.1800E+02
     -2.079  0.0000E+00  0.1800E+02
     -1.994  0.0000E+00  0.1800E+02
     -1.909  0.0000E+00  0.1800E+02
     -1.824  0.0000E+00  0.1800E+02
     -1.738  0.0000E+00  0.1800E+02
     -1.653  0.0000E+00  0.1800E+02
     -1.568  0.6982E+00  0.1806E+02
     -1.483  0.9206E+00  0.1813E+02
     -1.398  0.5883E+01  0.1836E+02
     -1.312  0.8269E+01  0.1898E+02
     -1.227  0.9462E+00  0.1971E+02
     -1.142  0.7997E+00  0.1978E+02
     -1.057  0.3685E+01  0.1991E+02
     -0.971  0.4955E+01  0.2051E+02
     -0.886  0.5628E+01  0.2094E+02
     -0.801  0.4790E+01  0.2133E+02
     -0.716  0.4051E+01  0.2183E+02
     -0.631  0.3279E+01  0.2215E+02
     -0.545  0.2445E+01  0.2239E+02
     -0.460  0.2703E+01  0.2260E+02
     -0.375  0.2628E+01  0.2282E+02
     -0.290  0.1877E+01  0.2307E+02
     -0.205  0.2379E+01  0.2326E+02
     -0.119  0.2036E+01  0.2350E+02
     -0.034  0.1974E+01  0.2367E+02
      0.051  0.1913E+01  0.2384E+02
      0.136  0.1764E+01  0.2400E+02
      0.222  0.1912E+01  0.2417E+02
      0.307  0.1620E+01  0.2432E+02
      0.392  0.1246E+01  0.2444E+02
      0.477  0.9595E+00  0.2453E+02
      0.562  0.1059E+01  0.2462E+02
      0.648  0.1159E+01  0.2471E+02
      0.733  0.3045E+01  0.2485E+02
      0.818  0.1561E+02  0.2529E+02
      0.903  0.1805E+01  0.2551E+02
      0.989  0.1477E+01  0.2565E+02
      1.074  0.1148E+01  0.2576E+02
      1.159  0.1108E+01  0.2585E+02
      1.244  0.1273E+01  0.2596E+02
      1.329  0.0000E+00  0.2600E+02
      1.415  0.0000E+00  0.2600E+02
      1.500  0.0000E+00  0.2600E+02
      1.585  0.0000E+00  0.2600E+02
      1.670  0.0000E+00  0.2600E+02
      1.755  0.0000E+00  0.2600E+02
      1.841  0.0000E+00  0.2600E+02
      1.926  0.0000E+00  0.2600E+02
      2.011  0.2508E-01  0.2600E+02
      2.096  0.1438E+00  0.2601E+02
      2.182  0.2625E+00  0.2602E+02
      2.267  0.3812E+00  0.2605E+02
      2.352  0.4998E+00  0.2609E+02
      2.437  0.3358E+00  0.2612E+02
      2.522  0.3561E+00  0.2615E+02
      2.608  0.3764E+00  0.2618E+02
      2.693  0.3968E+00  0.2621E+02
      2.778  0.4677E+00  0.2625E+02
      2.863  0.6088E+00  0.2629E+02
      2.949  0.7498E+00  0.2635E+02
      3.034  0.8609E+00  0.2642E+02
      3.119  0.9713E+00  0.2650E+02
      3.204  0.1101E+01  0.2659E+02
      3.289  0.1658E+01  0.2670E+02
      3.375  0.1696E+01  0.2684E+02
      3.460  0.1733E+01  0.2698E+02
      3.545  0.2089E+01  0.2718E+02
      3.630  0.2127E+01  0.2736E+02
      3.715  0.2085E+01  0.2754E+02
      3.801  0.1590E+01  0.2769E+02
      3.886  0.1094E+01  0.2781E+02
      3.971  0.1272E+01  0.2792E+02
      4.056  0.4408E+00  0.2799E+02
      4.142  0.0000E+00  0.2800E+02
      4.227  0.0000E+00  0.2800E+02
      4.312  0.0000E+00  0.2800E+02
      4.397  0.0000E+00  0.2800E+02
      4.482  0.0000E+00  0.2800E+02
      4.568  0.0000E+00  0.2800E+02
      4.653  0.0000E+00  0.2800E+02
      4.738  0.0000E+00  0.2800E+02
      4.823  0.0000E+00  0.2800E+02
      4.909  0.0000E+00  0.2800E+02
      4.994  0.0000E+00  0.2800E+02
      5.079  0.0000E+00  0.2800E+02
      5.164  0.0000E+00  0.2800E+02
      5.249  0.0000E+00  0.2800E+02
      5.335  0.0000E+00  0.2800E+02
      5.420  0.0000E+00  0.2800E+02
      5.505  0.0000E+00  0.2800E+02
      5.590  0.0000E+00  0.2800E+02
      5.675  0.0000E+00  0.2800E+02
      5.761  0.0000E+00  0.2800E+02
      5.846  0.0000E+00  0.2800E+02
      5.931  0.0000E+00  0.2800E+02
      6.016  0.0000E+00  0.2800E+02
      6.102  0.0000E+00  0.2800E+02
