    3    3    1    1
  0.7897505E+02  0.3190316E-09  0.3190316E-09  0.2687900E-08  0.5000000E-15
  1.000000000000000E-004
  CAR 
 unknown system                          
     18     10     14
 
  0.0000000E+00  0.0000000E+00  0.0000000E+00  0.1562500E-01
    1      -17.463568   1.000000
    2      -16.255490   1.000000
    3       -8.983740   1.000000
    4       -6.022970   1.000000
    5       -6.022966   1.000000
    6       -5.161740   1.000000
    7       -4.917122   1.000000
    8       -4.917087   1.000000
    9       -3.441708   1.000000
   10       -0.669399   0.000000
   11       -0.669371   0.000000
   12       -0.446033   0.000000
   13       -0.446017   0.000000
   14        1.993128   0.000000
 
  0.1250000E+00  0.0000000E+00  0.0000000E+00  0.9375000E-01
    1      -17.249413   1.000000
    2      -16.153074   1.000000
    3       -8.739192   1.000000
    4       -6.486316   1.000000
    5       -5.969608   1.000000
    6       -5.788466   1.000000
    7       -5.252887   1.000000
    8       -4.484061   1.000000
    9       -3.579963   1.000000
   10       -0.949956   0.000000
   11       -0.883847   0.000000
   12       -0.682578   0.000000
   13       -0.314634   0.000000
   14        2.360033   0.000000
 
  0.2500000E+00  0.0000000E+00  0.0000000E+00  0.9375000E-01
    1      -16.680662   1.000000
    2      -15.884252   1.000000
    3       -8.373086   1.000000
    4       -7.212902   1.000000
    5       -6.950461   1.000000
    6       -5.887972   1.000000
    7       -5.201484   1.000000
    8       -4.735669   1.000000
    9       -4.147876   1.000000
   10       -1.274274   0.000000
   11       -1.097558   0.000000
   12       -0.555346   0.000000
   13        0.302228   0.000000
   14        3.178306   0.000000
 
  0.3750000E+00  0.0000000E+00  0.0000000E+00  0.9375000E-01
    1      -16.005515   1.000000
    2      -15.575729   1.000000
    3       -8.810346   1.000000
    4       -7.817909   1.000000
    5       -7.345771   1.000000
    6       -6.385318   1.000000
    7       -5.144959   1.000000
    8       -4.610927   1.000000
    9       -4.342900   1.000000
   10       -1.279232   0.000000
   11       -1.000397   0.000000
   12        0.163097   0.000000
   13        0.695579   0.000000
   14        3.702769   0.000000
 
  0.5000000E+00  0.0000000E+00  0.0000000E+00  0.4687500E-01
    1      -15.677253   1.000000
    2      -15.432361   1.000000
    3       -9.143154   1.000000
    4       -8.182910   1.000000
    5       -7.472016   1.000000
    6       -6.565866   1.000000
    7       -5.283811   1.000000
    8       -4.383805   1.000000
    9       -4.062029   1.000000
   10       -1.257045   0.000000
   11       -0.741477   0.000000
   12        0.461586   0.000000
   13        0.811068   0.000000
   14        2.742324   0.000000
 
  0.1250000E+00  0.1250000E+00  0.0000000E+00  0.9375000E-01
    1      -16.856591   1.000000
    2      -15.966023   1.000000
    3       -8.391907   1.000000
    4       -7.050266   1.000000
    5       -6.531785   1.000000
    6       -6.066758   1.000000
    7       -5.449054   1.000000
    8       -4.349565   1.000000
    9       -3.951750   1.000000
   10       -1.349265   0.000000
   11       -0.970997   0.000000
   12       -0.959028   0.000000
   13        0.280049   0.000000
   14        2.950794   0.000000
 
  0.2500000E+00  0.1250000E+00  0.0000000E+00  0.1875000E+00
    1      -16.222983   1.000000
    2      -15.667411   1.000000
    3       -8.454599   1.000000
    4       -7.477002   1.000000
    5       -7.213970   1.000000
    6       -6.571146   1.000000
    7       -5.349556   1.000000
    8       -4.711797   1.000000
    9       -4.235344   1.000000
   10       -1.432735   0.000000
   11       -0.984423   0.000000
   12       -0.489109   0.000000
   13        0.787712   0.000000
   14        3.923500   0.000000
 
  0.3750000E+00  0.1250000E+00  0.0000000E+00  0.1875000E+00
    1      -15.692489   1.000000
    2      -15.423423   1.000000
    3       -8.855764   1.000000
    4       -8.240078   1.000000
    5       -7.344258   1.000000
    6       -6.587995   1.000000
    7       -5.334347   1.000000
    8       -5.193624   1.000000
    9       -3.908497   1.000000
   10       -1.238244   0.000000
   11       -0.728124   0.000000
   12        0.132787   0.000000
   13        0.821199   0.000000
   14        3.269238   0.000000
 
  0.2500000E+00  0.2500000E+00  0.0000000E+00  0.9375000E-01
    1      -15.707451   1.000000
    2      -15.414437   1.000000
    3       -8.495287   1.000000
    4       -8.290742   1.000000
    5       -7.017186   1.000000
    6       -6.636333   1.000000
    7       -6.317140   1.000000
    8       -5.060163   1.000000
    9       -3.937393   1.000000
   10       -1.289216   0.000000
   11       -0.678286   0.000000
   12       -0.365624   0.000000
   13        1.109129   0.000000
   14        4.101552   0.000000
 
  0.3750000E+00  0.2500000E+00  0.0000000E+00  0.9375000E-01
    1      -15.472560   1.000000
    2      -15.295246   1.000000
    3       -8.675175   1.000000
    4       -8.326400   1.000000
    5       -7.301396   1.000000
    6       -6.638883   1.000000
    7       -6.408743   1.000000
    8       -5.446445   1.000000
    9       -3.570032   1.000000
   10       -1.615039   0.000000
   11       -0.307120   0.000000
   12       -0.127823   0.000000
   13        1.254192   0.000000
   14        3.512637   0.000000
