       N       E                     dE             d eps       ncg     rms          rms(c)
DAV:   1     0.121566781458E+03    0.12157E+03   -0.49882E+03   280   0.679E+02
DAV:   2    -0.928112223531E+01   -0.13085E+03   -0.12459E+03   492   0.163E+02
DAV:   3    -0.231400456988E+02   -0.13859E+02   -0.13711E+02   388   0.670E+01
DAV:   4    -0.233984912689E+02   -0.25845E+00   -0.25666E+00   360   0.112E+01
DAV:   5    -0.234055793328E+02   -0.70881E-02   -0.70780E-02   376   0.177E+00    0.689E+00
RMM:   6    -0.222436378709E+02    0.11619E+01   -0.54307E+00   296   0.123E+01    0.262E+00
RMM:   7    -0.218577793733E+02    0.38586E+00   -0.55354E-01   290   0.339E+00    0.150E+00
RMM:   8    -0.217980793107E+02    0.59700E-01   -0.23422E-01   306   0.249E+00    0.355E-01
RMM:   9    -0.217932708589E+02    0.48085E-02   -0.86835E-03   335   0.597E-01    0.958E-02
RMM:  10    -0.217925586920E+02    0.71217E-03   -0.17314E-03   329   0.218E-01    0.440E-02
RMM:  11    -0.217924899762E+02    0.68716E-04   -0.16816E-03   312   0.191E-01    0.551E-02
RMM:  12    -0.217922973734E+02    0.19260E-03   -0.54684E-04   302   0.130E-01    0.170E-02
RMM:  13    -0.217925528976E+02   -0.25552E-03   -0.15386E-04   290   0.681E-02    0.201E-02
RMM:  14    -0.217925817369E+02   -0.28839E-04   -0.24467E-05   253   0.268E-02    0.493E-03
RMM:  15    -0.217926854755E+02   -0.10374E-03   -0.11431E-05   193   0.166E-02    0.284E-03
RMM:  16    -0.217927194870E+02   -0.34011E-04   -0.49541E-06   184   0.928E-03    0.168E-03
RMM:  17    -0.217927685681E+02   -0.49081E-04   -0.33386E-06   162   0.788E-03    0.146E-03
RMM:  18    -0.217927761074E+02   -0.75393E-05   -0.43307E-07    83   0.410E-03
   1 F= -.22383685E+02 E0= -.22383685E+02  d E =0.000000E+00
