 vasp.5.4.4.18Apr17-6-g9f103f2a35 (build Jun 30 2017 11:15:00) complex          
  
 executed on    STALLO_VASP_5.4.4 date 2019.11.08  11:57:51
 running on    4 total cores
 distrk:  each k-point on    4 cores,    1 groups
 distr:  one band on NCORES_PER_BAND=   2 cores,    2 groups


--------------------------------------------------------------------------------------------------------


 INCAR:
 POTCAR:   PAW_PBE Mo 08Apr2002                   
 POTCAR:    PAW_PBE S 17Jan2003                   
 POTCAR:   PAW_PBE Mo 08Apr2002                   
   VRHFIN =Mo: 4p5s4d                                                           
   LEXCH  = PE                                                                  
   EATOM  =   217.5180 eV,   15.9871 Ry                                         
                                                                                
   TITEL  = PAW_PBE Mo 08Apr2002                                                
   LULTRA =        F    use ultrasoft PP ?                                      
   IUNSCR =        1    unscreen: 0-lin 1-nonlin 2-no                           
   RPACOR =    2.200    partial core radius                                     
   POMASS =   95.940; ZVAL   =    6.000    mass and valenz                      
   RCORE  =    2.750    outmost cutoff radius                                   
   RWIGS  =    2.750; RWIGS  =    1.455    wigner-seitz radius (au A)           
   ENMAX  =  224.584; ENMIN  =  168.438 eV                                      
   RCLOC  =    2.111    cutoff for local pot                                    
   LCOR   =        T    correct aug charges                                     
   LPAW   =        T    paw PP                                                  
   EAUG   =  345.278                                                            
   DEXC   =    -.088                                                            
   RMAX   =    3.077    core radius for proj-oper                               
   RAUG   =    1.300    factor for augmentation sphere                          
   RDEP   =    2.815    radius for radial grids                                 
   QCUT   =   -4.063; QGAM   =    8.126    optimization parameters              
                                                                                
   Description                                                                  
     l     E      TYP  RCUT    TYP  RCUT                                        
     2   .000     23  2.500                                                     
     2   .000     23  2.500                                                     
     0   .000     23  2.600                                                     
     0  1.000     23  2.600                                                     
     1   .400     23  2.750                                                     
     1  2.000     23  2.750                                                     
     3   .000      7   .000                                                     
  local pseudopotential read in
  partial core-charges read in
  atomic valenz-charges read in
  non local Contribution for L=           2  read in
    real space projection operators read in
  non local Contribution for L=           2  read in
    real space projection operators read in
  non local Contribution for L=           0  read in
    real space projection operators read in
  non local Contribution for L=           0  read in
    real space projection operators read in
  non local Contribution for L=           1  read in
    real space projection operators read in
  non local Contribution for L=           1  read in
    real space projection operators read in
    PAW grid and wavefunctions read in
 
   number of l-projection  operators is LMAX  =           6
   number of lm-projection operators is LMMAX =          18
 
 POTCAR:    PAW_PBE S 17Jan2003                   
   VRHFIN =S : s2p4                                                             
   LEXCH  = PE                                                                  
   EATOM  =   276.8230 eV,   20.3459 Ry                                         
                                                                                
   TITEL  = PAW_PBE S 17Jan2003                                                 
   LULTRA =        F    use ultrasoft PP ?                                      
   IUNSCR =        1    unscreen: 0-lin 1-nonlin 2-no                           
   RPACOR =    1.500    partial core radius                                     
   POMASS =   32.066; ZVAL   =    6.000    mass and valenz                      
   RCORE  =    1.900    outmost cutoff radius                                   
   RWIGS  =    2.200; RWIGS  =    1.164    wigner-seitz radius (au A)           
   ENMAX  =  280.000; ENMIN  =  194.016 eV                                      
   ICORE  =        2    local potential                                         
   LCOR   =        T    correct aug charges                                     
   LPAW   =        T    paw PP                                                  
   EAUG   =  335.092                                                            
   DEXC   =     .000                                                            
   RMAX   =    2.867    core radius for proj-oper                               
   RAUG   =    1.300    factor for augmentation sphere                          
   RDEP   =    1.954    radius for radial grids                                 
   QCUT   =   -4.360; QGAM   =    8.721    optimization parameters              
                                                                                
   Description                                                                  
     l     E      TYP  RCUT    TYP  RCUT                                        
     0   .000     23  1.900                                                     
     0   .000     23  1.900                                                     
     1   .000     23  1.900                                                     
     1   .000     23  1.900                                                     
     2   .000     23  1.900                                                     
  local pseudopotential read in
  partial core-charges read in
  atomic valenz-charges read in
  non local Contribution for L=           0  read in
    real space projection operators read in
  non local Contribution for L=           0  read in
    real space projection operators read in
  non local Contribution for L=           1  read in
    real space projection operators read in
  non local Contribution for L=           1  read in
    real space projection operators read in
    PAW grid and wavefunctions read in
 
   number of l-projection  operators is LMAX  =           4
   number of lm-projection operators is LMMAX =           8
 
 PAW_PBE Mo 08Apr2002                   :
 energy of atom  1       EATOM= -217.5180
 kinetic energy error for atom=    0.0059 (will be added to EATOM!!)
  PAW_PBE S 17Jan2003                   :
 energy of atom  2       EATOM= -276.8230
 kinetic energy error for atom=    0.0051 (will be added to EATOM!!)
 
 
 POSCAR: MoS2_mp-2815_computed                   
  positions in cartesian coordinates
  velocities in cartesian coordinates
  No initial velocities read in
 exchange correlation table for  LEXCH =        8
   RHO(1)=    0.500       N(1)  =     2000
   RHO(2)=  100.500       N(2)  =     4000
 


--------------------------------------------------------------------------------------------------------


 ion  position               nearest neighbor table
   1  0.333  0.667  0.138-   3 2.42   2 2.42   2 2.42   3 2.42   3 2.42   2 2.42
   2  0.667  0.333  0.080-   1 2.42   1 2.42   1 2.42
   3  0.667  0.333  0.197-   1 2.42   1 2.42   1 2.42
 
  LATTYP: Found a hexagonal cell.
 ALAT       =     3.1903157300
 C/A-ratio  =     8.4251862746
  
  Lattice vectors:
  
 A1 = (   3.1903157300,   0.0000000000,   0.0000000000)
 A2 = (  -1.5951578650,   2.7628944683,   0.0000000000)
 A3 = (   0.0000000000,   0.0000000000,  26.8790043000)


Analysis of symmetry for initial positions (statically):
=====================================================================
 Subroutine PRICEL returns:
 Original cell was already a primitive cell.
 

 Routine SETGRP: Setting up the symmetry group for a 
 hexagonal supercell.


 Subroutine GETGRP returns: Found 12 space group operations
 (whereof  6 operations were pure point group operations)
 out of a pool of 24 trial point group operations.


The static configuration has the point symmetry C_3v.
 The point group associated with its full space group is D_3h.


Analysis of symmetry for dynamics (positions and initial velocities):
=====================================================================
 Subroutine PRICEL returns:
 Original cell was already a primitive cell.
 

 Routine SETGRP: Setting up the symmetry group for a 
 hexagonal supercell.


 Subroutine GETGRP returns: Found 12 space group operations
 (whereof  6 operations were pure point group operations)
 out of a pool of 24 trial point group operations.


The dynamic configuration has the point symmetry C_3v.
 The point group associated with its full space group is D_3h.


 Subroutine INISYM returns: Found 12 space group operations
 (whereof  6 operations are pure point group operations),
 and found     1 'primitive' translations

 
 
 KPOINTS: k-density: 4.0                          

Automatic generation of k-mesh.
Space group operators:
 irot       det(A)        alpha          n_x          n_y          n_z        tau_x        tau_y        tau_z
    1     1.000000     0.000001     1.000000     0.000000     0.000000     0.000000     0.000000     0.000000
    2     1.000000   120.000000     0.000000     0.000000    -1.000000     0.000000     0.000000     0.000000
    3     1.000000   120.000000     0.000000     0.000000     1.000000     0.000000     0.000000     0.000000
    4    -1.000000   179.999999     1.000000    -0.000000     0.000000     0.000000     0.000000     0.000000
    5    -1.000000   180.000000     0.500000    -0.866025     0.000000     0.000000     0.000000     0.000000
    6    -1.000000   180.000000    -0.500000    -0.866025     0.000000     0.000000     0.000000     0.000000
    7    -1.000000    60.000000     0.000000     0.000000    -1.000000    -0.000000     0.000000     0.276777
    8    -1.000000   180.000000     0.000000     0.000000     1.000000     0.000000     0.000000     0.276777
    9    -1.000000    60.000000     0.000000     0.000000     1.000000     0.000000     0.000001     0.276777
   10     1.000000   180.000000     0.866025    -0.500000     0.000000     0.000000     0.000000     0.276777
   11     1.000000   180.000000     0.000000     1.000000     0.000000     0.000000     0.000000     0.276777
   12     1.000000   179.999999     0.866025     0.500000     0.000000    -0.000000     0.000001     0.276777
 
 Subroutine IBZKPT returns following result:
 ===========================================
 
 Found     10 irreducible k-points:
 
 Following reciprocal coordinates:
            Coordinates               Weight
  0.000000  0.000000  0.000000      1.000000
  0.125000  0.000000  0.000000      6.000000
  0.250000  0.000000  0.000000      6.000000
  0.375000  0.000000  0.000000      6.000000
  0.500000  0.000000  0.000000      3.000000
  0.125000  0.125000  0.000000      6.000000
  0.250000  0.125000  0.000000     12.000000
  0.375000  0.125000  0.000000     12.000000
  0.250000  0.250000  0.000000      6.000000
  0.375000  0.250000  0.000000      6.000000
 
 Following cartesian coordinates:
            Coordinates               Weight
  0.000000  0.000000  0.000000      1.000000
  0.039181  0.022621  0.000000      6.000000
  0.078362  0.045242  0.000000      6.000000
  0.117543  0.067864  0.000000      6.000000
  0.156724  0.090485  0.000000      3.000000
  0.039181  0.067864  0.000000      6.000000
  0.078362  0.090485  0.000000     12.000000
  0.117543  0.113106  0.000000     12.000000
  0.078362  0.135727  0.000000      6.000000
  0.117543  0.158348  0.000000      6.000000
 
 TETIRR: Found     36 inequivalent tetrahedra from      384


--------------------------------------------------------------------------------------------------------




 Dimension of arrays:
   k-points           NKPTS =     10   k-points in BZ     NKDIM =     10   number of bands    NBANDS=     14
   number of dos      NEDOS =    301   number of ions     NIONS =      3
   non local maximal  LDIM  =      6   non local SUM 2l+1 LMDIM =     18
   total plane-waves  NPLWV =  32256
   max r-space proj   IRMAX =      1   max aug-charges    IRDMAX=   8940
   dimension x,y,z NGX =    16 NGY =   16 NGZ =  126
   dimension x,y,z NGXF=    32 NGYF=   32 NGZF=  252
   support grid    NGXF=    32 NGYF=   32 NGZF=  252
   ions per type =               1   2
   NGX,Y,Z   is equivalent  to a cutoff of   8.34,  8.34,  7.79 a.u.
   NGXF,Y,Z  is equivalent  to a cutoff of  16.68, 16.68, 15.59 a.u.

 SYSTEM =  unknown system                          
 POSCAR =  MoS2_mp-2815_computed                   

 Startparameter for this run:
   NWRITE =      2    write-flag & timer
   PREC   = normal    normal or accurate (medium, high low for compatibility)
   ISTART =      0    job   : 0-new  1-cont  2-samecut
   ICHARG =      2    charge: 1-file 2-atom 10-const
   ISPIN  =      1    spin polarized calculation?
   LNONCOLLINEAR =      F non collinear calculations
   LSORBIT =      F    spin-orbit coupling
   INIWAV =      1    electr: 0-lowe 1-rand  2-diag
   LASPH  =      F    aspherical Exc in radial PAW
   METAGGA=      F    non-selfconsistent MetaGGA calc.

 Electronic Relaxation 1
   ENCUT  =  350.0 eV  25.72 Ry    5.07 a.u.   4.87  4.87 41.00*2*pi/ulx,y,z
   ENINI  =  350.0     initial cutoff
   ENAUG  =  345.3 eV  augmentation charge cutoff
   NELM   =     60;   NELMIN=  4; NELMDL= -5     # of ELM steps 
   EDIFF  = 0.1E-04   stopping-criterion for ELM
   LREAL  =      F    real-space projection
   NLSPLINE    = F    spline interpolate recip. space projectors
   LCOMPAT=      F    compatible to vasp.4.4
   GGA_COMPAT  = T    GGA compatible to vasp.4.4-vasp.4.6
   LMAXPAW     = -100 max onsite density
   LMAXMIX     =    2 max onsite mixed and CHGCAR
   VOSKOWN=      0    Vosko Wilk Nusair interpolation
   ROPT   =    0.00000   0.00000
 Ionic relaxation
   EDIFFG = 0.1E-03   stopping-criterion for IOM
   NSW    =      0    number of steps for IOM
   NBLOCK =      1;   KBLOCK =      1    inner block; outer block 
   IBRION =     -1    ionic relax: 0-MD 1-quasi-New 2-CG
   NFREE  =      0    steps in history (QN), initial steepest desc. (CG)
   ISIF   =      2    stress and relaxation
   IWAVPR =     10    prediction:  0-non 1-charg 2-wave 3-comb
   ISYM   =      2    0-nonsym 1-usesym 2-fastsym
   LCORR  =      T    Harris-Foulkes like correction to forces

   POTIM  = 0.5000    time-step for ionic-motion
   TEIN   =    0.0    initial temperature
   TEBEG  =    0.0;   TEEND  =   0.0 temperature during run
   SMASS  =  -3.00    Nose mass-parameter (am)
   estimated Nose-frequenzy (Omega)   =  0.10E-29 period in steps =****** mass=  -0.233E-27a.u.
   SCALEE = 1.0000    scale energy and forces
   NPACO  =    256;   APACO  = 16.0  distance and # of slots for P.C.
   PSTRESS=    0.0 pullay stress

  Mass of Ions in am
   POMASS =  95.94 32.07
  Ionic Valenz
   ZVAL   =   6.00  6.00
  Atomic Wigner-Seitz radii
   RWIGS  =  -1.00 -1.00
  virtual crystal weights 
   VCA    =   1.00  1.00
   NELECT =      18.0000    total number of electrons
   NUPDOWN=      -1.0000    fix difference up-down

 DOS related values:
   EMIN   =  10.00;   EMAX   =-10.00  energy-range for DOS
   EFERMI =   0.00
   ISMEAR =    -5;   SIGMA  =   0.20  broadening in eV -4-tet -1-fermi 0-gaus

 Electronic relaxation 2 (details)
   IALGO  =     68    algorithm
   LDIAG  =      T    sub-space diagonalisation (order eigenvalues)
   LSUBROT=      F    optimize rotation matrix (better conditioning)
   TURBO    =      0    0=normal 1=particle mesh
   IRESTART =      0    0=no restart 2=restart with 2 vectors
   NREBOOT  =      0    no. of reboots
   NMIN     =      0    reboot dimension
   EREF     =   0.00    reference energy to select bands
   IMIX   =      4    mixing-type and parameters
     AMIX     =   0.40;   BMIX     =  1.00
     AMIX_MAG =   1.60;   BMIX_MAG =  1.00
     AMIN     =   0.10
     WC   =   100.;   INIMIX=   1;  MIXPRE=   1;  MAXMIX= -45

 Intra band minimization:
   WEIMIN = 0.0000     energy-eigenvalue tresh-hold
   EBREAK =  0.18E-06  absolut break condition
   DEPER  =   0.30     relativ break condition  

   TIME   =   0.40     timestep for ELM

  volume/ion in A,a.u.               =      78.98       532.95
  Fermi-wavevector in a.u.,A,eV,Ry     =   0.693365  1.310270  6.541070  0.480755
  Thomas-Fermi vector in A             =   1.775558
 
 Write flags
   LWAVE        =      F    write WAVECAR
   LDOWNSAMPLE  =      F    k-point downsampling of WAVECAR
   LCHARG       =      T    write CHGCAR
   LVTOT        =      F    write LOCPOT, total local potential
   LVHAR        =      F    write LOCPOT, Hartree potential only
   LELF         =      F    write electronic localiz. function (ELF)
   LORBIT       =      0    0 simple, 1 ext, 2 COOP (PROOUT), +10 PAW based schemes


 Dipole corrections
   LMONO  =      F    monopole corrections only (constant potential shift)
   LDIPOL =      F    correct potential (dipole corrections)
   IDIPOL =      0    1-x, 2-y, 3-z, 4-all directions 
   EPSILON=  1.0000000 bulk dielectric constant

 Exchange correlation treatment:
   GGA     =    --    GGA type
   LEXCH   =     8    internal setting for exchange type
   VOSKOWN=      0    Vosko Wilk Nusair interpolation
   LHFCALC =     F    Hartree Fock is set to
   LHFONE  =     F    Hartree Fock one center treatment
   AEXX    =    0.0000 exact exchange contribution

 Linear response parameters
   LEPSILON=     F    determine dielectric tensor
   LRPA    =     F    only Hartree local field effects (RPA)
   LNABLA  =     F    use nabla operator in PAW spheres
   LVEL    =     F    velocity operator in full k-point grid
   LINTERFAST=   F  fast interpolation
   KINTER  =     0    interpolate to denser k-point grid
   CSHIFT  =0.1000    complex shift for real part using Kramers Kronig
   OMEGAMAX=  -1.0    maximum frequency
   DEG_THRESHOLD= 0.2000000E-02 threshold for treating states as degnerate
   RTIME   =   -0.100 relaxation time in fs
  (WPLASMAI=    0.000 imaginary part of plasma frequency in eV, 0.658/RTIME)
   DFIELD  = 0.0000000 0.0000000 0.0000000 field for delta impulse in time
 
 Orbital magnetization related:
   ORBITALMAG=     F  switch on orbital magnetization
   LCHIMAG   =     F  perturbation theory with respect to B field
   DQ        =  0.001000  dq finite difference perturbation B field
   LLRAUG    =     F  two centre corrections for induced B field



--------------------------------------------------------------------------------------------------------


 Static calculation
 charge density and potential will be updated during run
 non-spin polarized calculation
 RMM-DIIS sequential band-by-band and
  variant of blocked Davidson during initial phase
 perform sub-space diagonalisation
    before iterative eigenvector-optimisation
 modified Broyden-mixing scheme, WC =      100.0
 initial mixing is a Kerker type mixing with AMIX =  0.4000 and BMIX =      1.0000
 Hartree-type preconditioning will be used
 using additional bands            5
 reciprocal scheme for non local part
 use partial core corrections
 calculate Harris-corrections to forces 
   (improved forces if not selfconsistent)
 use gradient corrections 
 use of overlap-Matrix (Vanderbilt PP)
 Fermi weights with tetrahedron method with Bloechl corrections


--------------------------------------------------------------------------------------------------------


  energy-cutoff  :      350.00
  volume of cell :      236.93
      direct lattice vectors                 reciprocal lattice vectors
     3.190315730  0.000000000  0.000000000     0.313448600  0.180969634  0.000000000
    -1.595157865  2.762894468  0.000000000     0.000000000  0.361939267  0.000000000
     0.000000000  0.000000000 26.879004300     0.000000000  0.000000000  0.037203759

  length of vectors
     3.190315730  3.190315730 26.879004300     0.361939267  0.361939267  0.037203759


 
 k-points in units of 2pi/SCALE and weight: k-density: 4.0                          
   0.00000000  0.00000000  0.00000000       0.016
   0.03918108  0.02262120  0.00000000       0.094
   0.07836215  0.04524241  0.00000000       0.094
   0.11754323  0.06786361  0.00000000       0.094
   0.15672430  0.09048482  0.00000000       0.047
   0.03918108  0.06786361  0.00000000       0.094
   0.07836215  0.09048482  0.00000000       0.188
   0.11754323  0.11310602  0.00000000       0.188
   0.07836215  0.13572723  0.00000000       0.094
   0.11754323  0.15834843  0.00000000       0.094
 
 k-points in reciprocal lattice and weights: k-density: 4.0                          
   0.00000000  0.00000000  0.00000000       0.016
   0.12500000  0.00000000  0.00000000       0.094
   0.25000000  0.00000000  0.00000000       0.094
   0.37500000  0.00000000  0.00000000       0.094
   0.50000000  0.00000000  0.00000000       0.047
   0.12500000  0.12500000  0.00000000       0.094
   0.25000000  0.12500000  0.00000000       0.188
   0.37500000  0.12500000  0.00000000       0.188
   0.25000000  0.25000000  0.00000000       0.094
   0.37500000  0.25000000  0.00000000       0.094
 
 position of ions in fractional coordinates (direct lattice) 
   0.33333300  0.66666700  0.13838872
   0.66666700  0.33333300  0.08016914
   0.66666600  0.33333300  0.19660830
 
 position of ions in cartesian coordinates  (Angst):
  -0.00000160  1.84193057  3.71975108
   1.59515946  0.92096390  2.15486668
   1.59515627  0.92096390  5.28463547
 


--------------------------------------------------------------------------------------------------------


 k-point  1 :   0.0000 0.0000 0.0000  plane waves:    3491
 k-point  2 :   0.1250 0.0000 0.0000  plane waves:    3481
 k-point  3 :   0.2500 0.0000 0.0000  plane waves:    3522
 k-point  4 :   0.3750 0.0000 0.0000  plane waves:    3516
 k-point  5 :   0.5000 0.0000 0.0000  plane waves:    3532
 k-point  6 :   0.1250 0.1250 0.0000  plane waves:    3497
 k-point  7 :   0.2500 0.1250 0.0000  plane waves:    3513
 k-point  8 :   0.3750 0.1250 0.0000  plane waves:    3543
 k-point  9 :   0.2500 0.2500 0.0000  plane waves:    3537
 k-point 10 :   0.3750 0.2500 0.0000  plane waves:    3559

 maximum and minimum number of plane-waves per node :      1781     1734

 maximum number of plane-waves:      3559
 maximum index in each direction: 
   IXMAX=    4   IYMAX=    4   IZMAX=   41
   IXMIN=   -5   IYMIN=   -5   IZMIN=  -41


 parallel 3D FFT for wavefunctions:
    minimum data exchange during FFTs selected (reduces bandwidth)
 parallel 3D FFT for charge:
    minimum data exchange during FFTs selected (reduces bandwidth)


 total amount of memory used by VASP MPI-rank0    44205. kBytes
=======================================================================

   base      :      30000. kBytes
   nonl-proj :       5205. kBytes
   fftplans  :       2669. kBytes
   grid      :       4280. kBytes
   one-center:         31. kBytes
   wavefun   :       2020. kBytes
 
     INWAV:  cpu time    0.0010: real time    0.0003
 Broyden mixing: mesh for mixing (old mesh)
   NGX =  9   NGY =  9   NGZ = 83
  (NGX  = 32   NGY  = 32   NGZ  =252)
  gives a total of   6723 points

 initial charge density was supplied:
 charge density of overlapping atoms calculated
 number of electron      18.0000000 magnetization 
 keeping initial charge density in first step


--------------------------------------------------------------------------------------------------------


 Maximum index for augmentation-charges         2114 (set IRDMAX)


--------------------------------------------------------------------------------------------------------


 First call to EWALD:  gamma=   0.286
 Maximum number of real-space cells 6x 6x 1
 Maximum number of reciprocal cells 2x 2x10

    FEWALD:  cpu time    0.0000: real time    0.0015


--------------------------------------- Iteration      1(   1)  ---------------------------------------


    POTLOK:  cpu time    0.0350: real time    0.0637
    SETDIJ:  cpu time    0.0030: real time    0.0033
     EDDAV:  cpu time    0.1390: real time    0.1430
 BZINTS: Fermi energy:  6.374099; 18.000000 electrons
         Band energy: -21.873040;  BLOECHL correction: -0.259183
       DOS:  cpu time    0.0010: real time    0.0010
    --------------------------------------------
      LOOP:  cpu time    0.1780: real time    0.2108

 eigenvalue-minimisations  :   280
 total energy-change (2. order) : 0.1215668E+03  (-0.4988215E+03)
 number of electron      18.0000000 magnetization 
 augmentation part       18.0000000 magnetization 

 Free energy of the ion-electron system (eV)
  ---------------------------------------------------
  alpha Z        PSCENC =        12.51390764
  Ewald energy   TEWEN  =      4286.25630342
  -Hartree energ DENC   =     -4967.71356795
  -exchange      EXHF   =         0.00000000
  -V(xc)+E(xc)   XCENC  =       -36.31055800
  PAW double counting   =       406.88651198     -329.34073203
  entropy T*S    EENTRO =         0.00000000
  eigenvalues    EBANDS =       -21.87303992
  atomic energy  EATOM  =       771.14795631
  Solvation  Ediel_sol  =         0.00000000
  ---------------------------------------------------
  free energy    TOTEN  =       121.56678146 eV

  energy without entropy =      121.56678146  energy(sigma->0) =      121.56678146


--------------------------------------------------------------------------------------------------------




--------------------------------------- Iteration      1(   2)  ---------------------------------------


     EDDAV:  cpu time    0.2140: real time    0.2145
 BZINTS: Fermi energy: -2.338161; 18.000000 electrons
         Band energy:-152.720944;  BLOECHL correction:  0.000000
       DOS:  cpu time    0.0000: real time    0.0002
    --------------------------------------------
      LOOP:  cpu time    0.2140: real time    0.2148

 eigenvalue-minimisations  :   492
 total energy-change (2. order) :-0.1308479E+03  (-0.1245878E+03)
 number of electron      18.0000000 magnetization 
 augmentation part       18.0000000 magnetization 

 Free energy of the ion-electron system (eV)
  ---------------------------------------------------
  alpha Z        PSCENC =        12.51390764
  Ewald energy   TEWEN  =      4286.25630342
  -Hartree energ DENC   =     -4967.71356795
  -exchange      EXHF   =         0.00000000
  -V(xc)+E(xc)   XCENC  =       -36.31055800
  PAW double counting   =       406.88651198     -329.34073203
  entropy T*S    EENTRO =         0.00000000
  eigenvalues    EBANDS =      -152.72094361
  atomic energy  EATOM  =       771.14795631
  Solvation  Ediel_sol  =         0.00000000
  ---------------------------------------------------
  free energy    TOTEN  =        -9.28112224 eV

  energy without entropy =       -9.28112224  energy(sigma->0) =       -9.28112224


--------------------------------------------------------------------------------------------------------




--------------------------------------- Iteration      1(   3)  ---------------------------------------


     EDDAV:  cpu time    0.1750: real time    0.1754
 BZINTS: Fermi energy: -3.340022; 18.000000 electrons
         Band energy:-166.579867;  BLOECHL correction:  0.000000
       DOS:  cpu time    0.0000: real time    0.0002
    --------------------------------------------
      LOOP:  cpu time    0.1750: real time    0.1756

 eigenvalue-minimisations  :   388
 total energy-change (2. order) :-0.1385892E+02  (-0.1371097E+02)
 number of electron      18.0000000 magnetization 
 augmentation part       18.0000000 magnetization 

 Free energy of the ion-electron system (eV)
  ---------------------------------------------------
  alpha Z        PSCENC =        12.51390764
  Ewald energy   TEWEN  =      4286.25630342
  -Hartree energ DENC   =     -4967.71356795
  -exchange      EXHF   =         0.00000000
  -V(xc)+E(xc)   XCENC  =       -36.31055800
  PAW double counting   =       406.88651198     -329.34073203
  entropy T*S    EENTRO =         0.00000000
  eigenvalues    EBANDS =      -166.57986708
  atomic energy  EATOM  =       771.14795631
  Solvation  Ediel_sol  =         0.00000000
  ---------------------------------------------------
  free energy    TOTEN  =       -23.14004570 eV

  energy without entropy =      -23.14004570  energy(sigma->0) =      -23.14004570


--------------------------------------------------------------------------------------------------------




--------------------------------------- Iteration      1(   4)  ---------------------------------------


     EDDAV:  cpu time    0.1630: real time    0.1635
 BZINTS: Fermi energy: -3.312118; 18.000000 electrons
         Band energy:-166.838313;  BLOECHL correction:  0.000000
       DOS:  cpu time    0.0000: real time    0.0002
    --------------------------------------------
      LOOP:  cpu time    0.1630: real time    0.1638

 eigenvalue-minimisations  :   360
 total energy-change (2. order) :-0.2584456E+00  (-0.2566551E+00)
 number of electron      18.0000000 magnetization 
 augmentation part       18.0000000 magnetization 

 Free energy of the ion-electron system (eV)
  ---------------------------------------------------
  alpha Z        PSCENC =        12.51390764
  Ewald energy   TEWEN  =      4286.25630342
  -Hartree energ DENC   =     -4967.71356795
  -exchange      EXHF   =         0.00000000
  -V(xc)+E(xc)   XCENC  =       -36.31055800
  PAW double counting   =       406.88651198     -329.34073203
  entropy T*S    EENTRO =         0.00000000
  eigenvalues    EBANDS =      -166.83831265
  atomic energy  EATOM  =       771.14795631
  Solvation  Ediel_sol  =         0.00000000
  ---------------------------------------------------
  free energy    TOTEN  =       -23.39849127 eV

  energy without entropy =      -23.39849127  energy(sigma->0) =      -23.39849127


--------------------------------------------------------------------------------------------------------




--------------------------------------- Iteration      1(   5)  ---------------------------------------


     EDDAV:  cpu time    0.1700: real time    0.1696
 BZINTS: Fermi energy: -3.318574; 18.000000 electrons
         Band energy:-166.845401;  BLOECHL correction:  0.000000
       DOS:  cpu time    0.0000: real time    0.0002
    CHARGE:  cpu time    0.0140: real time    0.0144
    MIXING:  cpu time    0.0010: real time    0.0014
    --------------------------------------------
      LOOP:  cpu time    0.1850: real time    0.1857

 eigenvalue-minimisations  :   376
 total energy-change (2. order) :-0.7088064E-02  (-0.7078045E-02)
 number of electron      18.0000013 magnetization 
 augmentation part       -0.9465585 magnetization 

 Broyden mixing:
  rms(total) = 0.68881E+00    rms(broyden)= 0.68875E+00
  rms(prec ) = 0.74608E+00
  weight for this iteration     100.00

 Free energy of the ion-electron system (eV)
  ---------------------------------------------------
  alpha Z        PSCENC =        12.51390764
  Ewald energy   TEWEN  =      4286.25630342
  -Hartree energ DENC   =     -4967.71356795
  -exchange      EXHF   =         0.00000000
  -V(xc)+E(xc)   XCENC  =       -36.31055800
  PAW double counting   =       406.88651198     -329.34073203
  entropy T*S    EENTRO =         0.00000000
  eigenvalues    EBANDS =      -166.84540071
  atomic energy  EATOM  =       771.14795631
  Solvation  Ediel_sol  =         0.00000000
  ---------------------------------------------------
  free energy    TOTEN  =       -23.40557933 eV

  energy without entropy =      -23.40557933  energy(sigma->0) =      -23.40557933


--------------------------------------------------------------------------------------------------------




--------------------------------------- Iteration      1(   6)  ---------------------------------------


    POTLOK:  cpu time    0.0310: real time    0.0339
    SETDIJ:  cpu time    0.0020: real time    0.0022
    EDDIAG:  cpu time    0.0300: real time    0.0304
  RMM-DIIS:  cpu time    0.1200: real time    0.1194
    ORTHCH:  cpu time    0.0030: real time    0.0031
 BZINTS: Fermi energy: -4.381717; 18.000000 electrons
         Band energy:-167.341843;  BLOECHL correction:  0.000000
       DOS:  cpu time    0.0000: real time    0.0002
    CHARGE:  cpu time    0.0140: real time    0.0140
    MIXING:  cpu time    0.0010: real time    0.0011
    --------------------------------------------
      LOOP:  cpu time    0.2010: real time    0.2042

 eigenvalue-minimisations  :   296
 total energy-change (2. order) : 0.1161941E+01  (-0.5430661E+00)
 number of electron      18.0000012 magnetization 
 augmentation part       -0.4001496 magnetization 

 Broyden mixing:
  rms(total) = 0.26238E+00    rms(broyden)= 0.26230E+00
  rms(prec ) = 0.30799E+00
  weight for this iteration     100.00

 eigenvalues of (default mixing * dielectric matrix)
  average eigenvalue GAMMA=   0.8331
  0.8331

 Free energy of the ion-electron system (eV)
  ---------------------------------------------------
  alpha Z        PSCENC =        12.51390764
  Ewald energy   TEWEN  =      4286.25630342
  -Hartree energ DENC   =     -4966.05044030
  -exchange      EXHF   =         0.00000000
  -V(xc)+E(xc)   XCENC  =       -35.42533576
  PAW double counting   =       424.04502430     -347.38921067
  entropy T*S    EENTRO =         0.00000000
  eigenvalues    EBANDS =      -167.34184282
  atomic energy  EATOM  =       771.14795631
  Solvation  Ediel_sol  =         0.00000000
  ---------------------------------------------------
  free energy    TOTEN  =       -22.24363787 eV

  energy without entropy =      -22.24363787  energy(sigma->0) =      -22.24363787


--------------------------------------------------------------------------------------------------------




--------------------------------------- Iteration      1(   7)  ---------------------------------------


    POTLOK:  cpu time    0.0270: real time    0.0280
    SETDIJ:  cpu time    0.0030: real time    0.0022
    EDDIAG:  cpu time    0.0290: real time    0.0296
  RMM-DIIS:  cpu time    0.1150: real time    0.1141
    ORTHCH:  cpu time    0.0020: real time    0.0032
 BZINTS: Fermi energy: -3.813627; 18.000000 electrons
         Band energy:-161.190521;  BLOECHL correction:  0.000000
       DOS:  cpu time    0.0000: real time    0.0002
    CHARGE:  cpu time    0.0140: real time    0.0140
    MIXING:  cpu time    0.0010: real time    0.0011
    --------------------------------------------
      LOOP:  cpu time    0.1910: real time    0.1924

 eigenvalue-minimisations  :   290
 total energy-change (2. order) : 0.3858585E+00  (-0.5535392E-01)
 number of electron      18.0000012 magnetization 
 augmentation part       -0.6004871 magnetization 

 Broyden mixing:
  rms(total) = 0.15024E+00    rms(broyden)= 0.15023E+00
  rms(prec ) = 0.15859E+00
  weight for this iteration     100.00

 eigenvalues of (default mixing * dielectric matrix)
  average eigenvalue GAMMA=   1.3628
  0.6657  2.0599

 Free energy of the ion-electron system (eV)
  ---------------------------------------------------
  alpha Z        PSCENC =        12.51390764
  Ewald energy   TEWEN  =      4286.25630342
  -Hartree energ DENC   =     -4971.44073810
  -exchange      EXHF   =         0.00000000
  -V(xc)+E(xc)   XCENC  =       -35.56967734
  PAW double counting   =       441.61004826     -365.18505811
  entropy T*S    EENTRO =         0.00000000
  eigenvalues    EBANDS =      -161.19052145
  atomic energy  EATOM  =       771.14795631
  Solvation  Ediel_sol  =         0.00000000
  ---------------------------------------------------
  free energy    TOTEN  =       -21.85777937 eV

  energy without entropy =      -21.85777937  energy(sigma->0) =      -21.85777937


--------------------------------------------------------------------------------------------------------




--------------------------------------- Iteration      1(   8)  ---------------------------------------


    POTLOK:  cpu time    0.0280: real time    0.0274
    SETDIJ:  cpu time    0.0030: real time    0.0022
    EDDIAG:  cpu time    0.0290: real time    0.0296
  RMM-DIIS:  cpu time    0.1220: real time    0.1216
    ORTHCH:  cpu time    0.0020: real time    0.0031
 BZINTS: Fermi energy: -3.705223; 18.000000 electrons
         Band energy:-156.973668;  BLOECHL correction:  0.000000
       DOS:  cpu time    0.0010: real time    0.0002
    CHARGE:  cpu time    0.0140: real time    0.0140
    MIXING:  cpu time    0.0010: real time    0.0018
    --------------------------------------------
      LOOP:  cpu time    0.2000: real time    0.1999

 eigenvalue-minimisations  :   306
 total energy-change (2. order) : 0.5970006E-01  (-0.2342170E-01)
 number of electron      18.0000012 magnetization 
 augmentation part       -0.5533153 magnetization 

 Broyden mixing:
  rms(total) = 0.35506E-01    rms(broyden)= 0.35499E-01
  rms(prec ) = 0.37845E-01
  weight for this iteration     100.00

 eigenvalues of (default mixing * dielectric matrix)
  average eigenvalue GAMMA=   1.4996
  1.9173  1.9173  0.6641

 Free energy of the ion-electron system (eV)
  ---------------------------------------------------
  alpha Z        PSCENC =        12.51390764
  Ewald energy   TEWEN  =      4286.25630342
  -Hartree energ DENC   =     -4975.35144259
  -exchange      EXHF   =         0.00000000
  -V(xc)+E(xc)   XCENC  =       -35.30002240
  PAW double counting   =       465.40878218     -389.49989588
  entropy T*S    EENTRO =         0.00000000
  eigenvalues    EBANDS =      -156.97366801
  atomic energy  EATOM  =       771.14795631
  Solvation  Ediel_sol  =         0.00000000
  ---------------------------------------------------
  free energy    TOTEN  =       -21.79807931 eV

  energy without entropy =      -21.79807931  energy(sigma->0) =      -21.79807931


--------------------------------------------------------------------------------------------------------




--------------------------------------- Iteration      1(   9)  ---------------------------------------


    POTLOK:  cpu time    0.0270: real time    0.0275
    SETDIJ:  cpu time    0.0030: real time    0.0022
    EDDIAG:  cpu time    0.0290: real time    0.0296
  RMM-DIIS:  cpu time    0.1340: real time    0.1338
    ORTHCH:  cpu time    0.0030: real time    0.0031
 BZINTS: Fermi energy: -3.632993; 18.000000 electrons
         Band energy:-155.658242;  BLOECHL correction:  0.000000
       DOS:  cpu time    0.0000: real time    0.0002
    CHARGE:  cpu time    0.0140: real time    0.0140
    MIXING:  cpu time    0.0010: real time    0.0012
    --------------------------------------------
      LOOP:  cpu time    0.2110: real time    0.2117

 eigenvalue-minimisations  :   335
 total energy-change (2. order) : 0.4808452E-02  (-0.8683516E-03)
 number of electron      18.0000012 magnetization 
 augmentation part       -0.5484536 magnetization 

 Broyden mixing:
  rms(total) = 0.95841E-02    rms(broyden)= 0.95810E-02
  rms(prec ) = 0.11810E-01
  weight for this iteration     100.00

 eigenvalues of (default mixing * dielectric matrix)
  average eigenvalue GAMMA=   1.5068
  0.6664  1.0471  2.4375  1.8761

 Free energy of the ion-electron system (eV)
  ---------------------------------------------------
  alpha Z        PSCENC =        12.51390764
  Ewald energy   TEWEN  =      4286.25630342
  -Hartree energ DENC   =     -4976.63570447
  -exchange      EXHF   =         0.00000000
  -V(xc)+E(xc)   XCENC  =       -35.24701138
  PAW double counting   =       470.83896974     -395.00945005
  entropy T*S    EENTRO =         0.00000000
  eigenvalues    EBANDS =      -155.65824208
  atomic energy  EATOM  =       771.14795631
  Solvation  Ediel_sol  =         0.00000000
  ---------------------------------------------------
  free energy    TOTEN  =       -21.79327086 eV

  energy without entropy =      -21.79327086  energy(sigma->0) =      -21.79327086


--------------------------------------------------------------------------------------------------------




--------------------------------------- Iteration      1(  10)  ---------------------------------------


    POTLOK:  cpu time    0.0280: real time    0.0276
    SETDIJ:  cpu time    0.0020: real time    0.0022
    EDDIAG:  cpu time    0.0290: real time    0.0296
  RMM-DIIS:  cpu time    0.1330: real time    0.1319
    ORTHCH:  cpu time    0.0020: real time    0.0031
 BZINTS: Fermi energy: -3.575570; 18.000000 electrons
         Band energy:-154.532198;  BLOECHL correction:  0.000000
       DOS:  cpu time    0.0010: real time    0.0002
    CHARGE:  cpu time    0.0140: real time    0.0140
    MIXING:  cpu time    0.0010: real time    0.0013
    --------------------------------------------
      LOOP:  cpu time    0.2100: real time    0.2099

 eigenvalue-minimisations  :   329
 total energy-change (2. order) : 0.7121669E-03  (-0.1731372E-03)
 number of electron      18.0000012 magnetization 
 augmentation part       -0.5528521 magnetization 

 Broyden mixing:
  rms(total) = 0.44018E-02    rms(broyden)= 0.44012E-02
  rms(prec ) = 0.60483E-02
  weight for this iteration     100.00

 eigenvalues of (default mixing * dielectric matrix)
  average eigenvalue GAMMA=   1.6682
  0.6670  1.0371  2.1617  2.2376  2.2376

 Free energy of the ion-electron system (eV)
  ---------------------------------------------------
  alpha Z        PSCENC =        12.51390764
  Ewald energy   TEWEN  =      4286.25630342
  -Hartree energ DENC   =     -4977.75189041
  -exchange      EXHF   =         0.00000000
  -V(xc)+E(xc)   XCENC  =       -35.22593197
  PAW double counting   =       473.11724257     -397.31794864
  entropy T*S    EENTRO =         0.00000000
  eigenvalues    EBANDS =      -154.53219762
  atomic energy  EATOM  =       771.14795631
  Solvation  Ediel_sol  =         0.00000000
  ---------------------------------------------------
  free energy    TOTEN  =       -21.79255869 eV

  energy without entropy =      -21.79255869  energy(sigma->0) =      -21.79255869


--------------------------------------------------------------------------------------------------------




--------------------------------------- Iteration      1(  11)  ---------------------------------------


    POTLOK:  cpu time    0.0270: real time    0.0311
    SETDIJ:  cpu time    0.0030: real time    0.0022
    EDDIAG:  cpu time    0.0290: real time    0.0296
  RMM-DIIS:  cpu time    0.1260: real time    0.1255
    ORTHCH:  cpu time    0.0020: real time    0.0031
 BZINTS: Fermi energy: -3.518741; 18.000000 electrons
         Band energy:-153.415035;  BLOECHL correction:  0.000000
       DOS:  cpu time    0.0010: real time    0.0002
    CHARGE:  cpu time    0.0140: real time    0.0141
    MIXING:  cpu time    0.0010: real time    0.0013
    --------------------------------------------
      LOOP:  cpu time    0.2030: real time    0.2072

 eigenvalue-minimisations  :   312
 total energy-change (2. order) : 0.6871579E-04  (-0.1681643E-03)
 number of electron      18.0000012 magnetization 
 augmentation part       -0.5492291 magnetization 

 Broyden mixing:
  rms(total) = 0.55108E-02    rms(broyden)= 0.55105E-02
  rms(prec ) = 0.63461E-02
  weight for this iteration     100.00

 eigenvalues of (default mixing * dielectric matrix)
  average eigenvalue GAMMA=   1.6707
  2.9180  2.6797  0.6676  0.9290  1.4148  1.4148

 Free energy of the ion-electron system (eV)
  ---------------------------------------------------
  alpha Z        PSCENC =        12.51390764
  Ewald energy   TEWEN  =      4286.25630342
  -Hartree energ DENC   =     -4978.89208839
  -exchange      EXHF   =         0.00000000
  -V(xc)+E(xc)   XCENC  =       -35.21257892
  PAW double counting   =       472.54745539     -396.73841045
  entropy T*S    EENTRO =         0.00000000
  eigenvalues    EBANDS =      -153.41503498
  atomic energy  EATOM  =       771.14795631
  Solvation  Ediel_sol  =         0.00000000
  ---------------------------------------------------
  free energy    TOTEN  =       -21.79248998 eV

  energy without entropy =      -21.79248998  energy(sigma->0) =      -21.79248998


--------------------------------------------------------------------------------------------------------




--------------------------------------- Iteration      1(  12)  ---------------------------------------


    POTLOK:  cpu time    0.0280: real time    0.0275
    SETDIJ:  cpu time    0.0020: real time    0.0022
    EDDIAG:  cpu time    0.0290: real time    0.0296
  RMM-DIIS:  cpu time    0.1220: real time    0.1217
    ORTHCH:  cpu time    0.0030: real time    0.0032
 BZINTS: Fermi energy: -3.483555; 18.000000 electrons
         Band energy:-152.757314;  BLOECHL correction:  0.000000
       DOS:  cpu time    0.0010: real time    0.0002
    CHARGE:  cpu time    0.0140: real time    0.0141
    MIXING:  cpu time    0.0010: real time    0.0014
    --------------------------------------------
      LOOP:  cpu time    0.2000: real time    0.1999

 eigenvalue-minimisations  :   302
 total energy-change (2. order) : 0.1926029E-03  (-0.5468397E-04)
 number of electron      18.0000012 magnetization 
 augmentation part       -0.5518930 magnetization 

 Broyden mixing:
  rms(total) = 0.17022E-02    rms(broyden)= 0.17020E-02
  rms(prec ) = 0.23015E-02
  weight for this iteration     100.00

 eigenvalues of (default mixing * dielectric matrix)
  average eigenvalue GAMMA=   1.9465
  3.8399  2.7350  2.7350  0.6676  0.9644  1.4175  1.2663

 Free energy of the ion-electron system (eV)
  ---------------------------------------------------
  alpha Z        PSCENC =        12.51390764
  Ewald energy   TEWEN  =      4286.25630342
  -Hartree energ DENC   =     -4979.55534528
  -exchange      EXHF   =         0.00000000
  -V(xc)+E(xc)   XCENC  =       -35.20914484
  PAW double counting   =       472.72647169     -396.91513183
  entropy T*S    EENTRO =         0.00000000
  eigenvalues    EBANDS =      -152.75731449
  atomic energy  EATOM  =       771.14795631
  Solvation  Ediel_sol  =         0.00000000
  ---------------------------------------------------
  free energy    TOTEN  =       -21.79229737 eV

  energy without entropy =      -21.79229737  energy(sigma->0) =      -21.79229737


--------------------------------------------------------------------------------------------------------




--------------------------------------- Iteration      1(  13)  ---------------------------------------


    POTLOK:  cpu time    0.0280: real time    0.0284
    SETDIJ:  cpu time    0.0020: real time    0.0022
    EDDIAG:  cpu time    0.0300: real time    0.0296
  RMM-DIIS:  cpu time    0.1140: real time    0.1140
    ORTHCH:  cpu time    0.0020: real time    0.0032
 BZINTS: Fermi energy: -3.444448; 18.000000 electrons
         Band energy:-152.035354;  BLOECHL correction:  0.000000
       DOS:  cpu time    0.0010: real time    0.0002
    CHARGE:  cpu time    0.0140: real time    0.0141
    MIXING:  cpu time    0.0010: real time    0.0014
    --------------------------------------------
      LOOP:  cpu time    0.1920: real time    0.1930

 eigenvalue-minimisations  :   290
 total energy-change (2. order) :-0.2555242E-03  (-0.1538610E-04)
 number of electron      18.0000012 magnetization 
 augmentation part       -0.5503368 magnetization 

 Broyden mixing:
  rms(total) = 0.20087E-02    rms(broyden)= 0.20086E-02
  rms(prec ) = 0.22546E-02
  weight for this iteration     100.00

 eigenvalues of (default mixing * dielectric matrix)
  average eigenvalue GAMMA=   1.9041
  4.7575  2.7083  2.3694  1.4185  1.4185  0.6677  0.9462  0.9462

 Free energy of the ion-electron system (eV)
  ---------------------------------------------------
  alpha Z        PSCENC =        12.51390764
  Ewald energy   TEWEN  =      4286.25630342
  -Hartree energ DENC   =     -4980.27929851
  -exchange      EXHF   =         0.00000000
  -V(xc)+E(xc)   XCENC  =       -35.20231887
  PAW double counting   =       472.67684257     -396.87059169
  entropy T*S    EENTRO =         0.00000000
  eigenvalues    EBANDS =      -152.03535376
  atomic energy  EATOM  =       771.14795631
  Solvation  Ediel_sol  =         0.00000000
  ---------------------------------------------------
  free energy    TOTEN  =       -21.79255290 eV

  energy without entropy =      -21.79255290  energy(sigma->0) =      -21.79255290


--------------------------------------------------------------------------------------------------------




--------------------------------------- Iteration      1(  14)  ---------------------------------------


    POTLOK:  cpu time    0.0290: real time    0.0289
    SETDIJ:  cpu time    0.0030: real time    0.0022
    EDDIAG:  cpu time    0.0290: real time    0.0296
  RMM-DIIS:  cpu time    0.1060: real time    0.1063
    ORTHCH:  cpu time    0.0030: real time    0.0031
 BZINTS: Fermi energy: -3.436199; 18.000000 electrons
         Band energy:-151.886432;  BLOECHL correction:  0.000000
       DOS:  cpu time    0.0000: real time    0.0002
    CHARGE:  cpu time    0.0140: real time    0.0141
    MIXING:  cpu time    0.0020: real time    0.0015
    --------------------------------------------
      LOOP:  cpu time    0.1860: real time    0.1859

 eigenvalue-minimisations  :   253
 total energy-change (2. order) :-0.2883933E-04  (-0.2446664E-05)
 number of electron      18.0000012 magnetization 
 augmentation part       -0.5515183 magnetization 

 Broyden mixing:
  rms(total) = 0.49277E-03    rms(broyden)= 0.49261E-03
  rms(prec ) = 0.68284E-03
  weight for this iteration     100.00

 eigenvalues of (default mixing * dielectric matrix)
  average eigenvalue GAMMA=   2.1579
  6.4172  2.9553  2.3900  2.3900  1.5022  0.6677  1.1905  0.9541  0.9541

 Free energy of the ion-electron system (eV)
  ---------------------------------------------------
  alpha Z        PSCENC =        12.51390764
  Ewald energy   TEWEN  =      4286.25630342
  -Hartree energ DENC   =     -4980.43069419
  -exchange      EXHF   =         0.00000000
  -V(xc)+E(xc)   XCENC  =       -35.20456243
  PAW double counting   =       472.49168191     -396.68074280
  entropy T*S    EENTRO =         0.00000000
  eigenvalues    EBANDS =      -151.88643160
  atomic energy  EATOM  =       771.14795631
  Solvation  Ediel_sol  =         0.00000000
  ---------------------------------------------------
  free energy    TOTEN  =       -21.79258174 eV

  energy without entropy =      -21.79258174  energy(sigma->0) =      -21.79258174


--------------------------------------------------------------------------------------------------------




--------------------------------------- Iteration      1(  15)  ---------------------------------------


    POTLOK:  cpu time    0.0290: real time    0.0295
    SETDIJ:  cpu time    0.0030: real time    0.0022
    EDDIAG:  cpu time    0.0290: real time    0.0296
  RMM-DIIS:  cpu time    0.0870: real time    0.0867
    ORTHCH:  cpu time    0.0030: real time    0.0032
 BZINTS: Fermi energy: -3.426982; 18.000000 electrons
         Band energy:-151.730864;  BLOECHL correction:  0.000000
       DOS:  cpu time    0.0000: real time    0.0002
    CHARGE:  cpu time    0.0140: real time    0.0141
    MIXING:  cpu time    0.0020: real time    0.0016
    --------------------------------------------
      LOOP:  cpu time    0.1670: real time    0.1670

 eigenvalue-minimisations  :   193
 total energy-change (2. order) :-0.1037386E-03  (-0.1143147E-05)
 number of electron      18.0000012 magnetization 
 augmentation part       -0.5512441 magnetization 

 Broyden mixing:
  rms(total) = 0.28433E-03    rms(broyden)= 0.28430E-03
  rms(prec ) = 0.37886E-03
  weight for this iteration     100.00

 eigenvalues of (default mixing * dielectric matrix)
  average eigenvalue GAMMA=   2.1408
  6.5560  3.5171  2.6187  1.7525  1.7525  0.6677  1.5394  1.0668  1.0029  0.9347

 Free energy of the ion-electron system (eV)
  ---------------------------------------------------
  alpha Z        PSCENC =        12.51390764
  Ewald energy   TEWEN  =      4286.25630342
  -Hartree energ DENC   =     -4980.58635387
  -exchange      EXHF   =         0.00000000
  -V(xc)+E(xc)   XCENC  =       -35.20428946
  PAW double counting   =       472.52344349     -396.71278854
  entropy T*S    EENTRO =         0.00000000
  eigenvalues    EBANDS =      -151.73086447
  atomic energy  EATOM  =       771.14795631
  Solvation  Ediel_sol  =         0.00000000
  ---------------------------------------------------
  free energy    TOTEN  =       -21.79268548 eV

  energy without entropy =      -21.79268548  energy(sigma->0) =      -21.79268548


--------------------------------------------------------------------------------------------------------




--------------------------------------- Iteration      1(  16)  ---------------------------------------


    POTLOK:  cpu time    0.0290: real time    0.0295
    SETDIJ:  cpu time    0.0030: real time    0.0022
    EDDIAG:  cpu time    0.0290: real time    0.0295
  RMM-DIIS:  cpu time    0.0860: real time    0.0858
    ORTHCH:  cpu time    0.0030: real time    0.0031
 BZINTS: Fermi energy: -3.423039; 18.000000 electrons
         Band energy:-151.669020;  BLOECHL correction:  0.000000
       DOS:  cpu time    0.0000: real time    0.0002
    CHARGE:  cpu time    0.0140: real time    0.0141
    MIXING:  cpu time    0.0020: real time    0.0017
    --------------------------------------------
      LOOP:  cpu time    0.1660: real time    0.1661

 eigenvalue-minimisations  :   184
 total energy-change (2. order) :-0.3401148E-04  (-0.4954146E-06)
 number of electron      18.0000012 magnetization 
 augmentation part       -0.5513893 magnetization 

 Broyden mixing:
  rms(total) = 0.16787E-03    rms(broyden)= 0.16784E-03
  rms(prec ) = 0.21467E-03
  weight for this iteration     100.00

 eigenvalues of (default mixing * dielectric matrix)
  average eigenvalue GAMMA=   2.3190
  7.3607  4.0228  3.0314  2.6576  2.1144  1.5494  0.6677  1.1137  1.0995  0.9692
  0.9228

 Free energy of the ion-electron system (eV)
  ---------------------------------------------------
  alpha Z        PSCENC =        12.51390764
  Ewald energy   TEWEN  =      4286.25630342
  -Hartree energ DENC   =     -4980.64736221
  -exchange      EXHF   =         0.00000000
  -V(xc)+E(xc)   XCENC  =       -35.20418788
  PAW double counting   =       472.57613776     -396.76645405
  entropy T*S    EENTRO =         0.00000000
  eigenvalues    EBANDS =      -151.66902049
  atomic energy  EATOM  =       771.14795631
  Solvation  Ediel_sol  =         0.00000000
  ---------------------------------------------------
  free energy    TOTEN  =       -21.79271949 eV

  energy without entropy =      -21.79271949  energy(sigma->0) =      -21.79271949


--------------------------------------------------------------------------------------------------------




--------------------------------------- Iteration      1(  17)  ---------------------------------------


    POTLOK:  cpu time    0.0290: real time    0.0357
    SETDIJ:  cpu time    0.0030: real time    0.0022
    EDDIAG:  cpu time    0.0290: real time    0.0296
  RMM-DIIS:  cpu time    0.0790: real time    0.0784
    ORTHCH:  cpu time    0.0030: real time    0.0031
 BZINTS: Fermi energy: -3.421296; 18.000000 electrons
         Band energy:-151.631551;  BLOECHL correction:  0.000000
       DOS:  cpu time    0.0000: real time    0.0002
    CHARGE:  cpu time    0.0140: real time    0.0141
    MIXING:  cpu time    0.0010: real time    0.0017
    --------------------------------------------
      LOOP:  cpu time    0.1580: real time    0.1650

 eigenvalue-minimisations  :   162
 total energy-change (2. order) :-0.4908112E-04  (-0.3338604E-06)
 number of electron      18.0000012 magnetization 
 augmentation part       -0.5514124 magnetization 

 Broyden mixing:
  rms(total) = 0.14628E-03    rms(broyden)= 0.14625E-03
  rms(prec ) = 0.16804E-03
  weight for this iteration     100.00

 eigenvalues of (default mixing * dielectric matrix)
  average eigenvalue GAMMA=   2.3244
  7.7824  4.9502  2.9462  2.5049  2.1003  1.4914  1.4914  0.6677  1.0467  1.0467
  0.9322  0.9322

 Free energy of the ion-electron system (eV)
  ---------------------------------------------------
  alpha Z        PSCENC =        12.51390764
  Ewald energy   TEWEN  =      4286.25630342
  -Hartree energ DENC   =     -4980.68572425
  -exchange      EXHF   =         0.00000000
  -V(xc)+E(xc)   XCENC  =       -35.20436934
  PAW double counting   =       472.52921860     -396.71851025
  entropy T*S    EENTRO =         0.00000000
  eigenvalues    EBANDS =      -151.63155069
  atomic energy  EATOM  =       771.14795631
  Solvation  Ediel_sol  =         0.00000000
  ---------------------------------------------------
  free energy    TOTEN  =       -21.79276857 eV

  energy without entropy =      -21.79276857  energy(sigma->0) =      -21.79276857


--------------------------------------------------------------------------------------------------------




--------------------------------------- Iteration      1(  18)  ---------------------------------------


    POTLOK:  cpu time    0.0290: real time    0.0287
    SETDIJ:  cpu time    0.0020: real time    0.0022
    EDDIAG:  cpu time    0.0300: real time    0.0296
  RMM-DIIS:  cpu time    0.0690: real time    0.0693
    ORTHCH:  cpu time    0.0030: real time    0.0031
 BZINTS: Fermi energy: -3.421455; 18.000000 electrons
         Band energy:-151.632999;  BLOECHL correction:  0.000000
       DOS:  cpu time    0.0000: real time    0.0002
    --------------------------------------------
      LOOP:  cpu time    0.1330: real time    0.1331

 eigenvalue-minimisations  :    83
 total energy-change (2. order) :-0.7539310E-05  (-0.4330664E-07)
 number of electron      18.0000012 magnetization 
 augmentation part       -0.5514124 magnetization 

 Free energy of the ion-electron system (eV)
  ---------------------------------------------------
  alpha Z        PSCENC =        12.51390764
  Ewald energy   TEWEN  =      4286.25630342
  -Hartree energ DENC   =     -4980.68408596
  -exchange      EXHF   =         0.00000000
  -V(xc)+E(xc)   XCENC  =       -35.20432883
  PAW double counting   =       472.53975665     -396.72928590
  entropy T*S    EENTRO =         0.00000000
  eigenvalues    EBANDS =      -151.63299944
  atomic energy  EATOM  =       771.14795631
  Solvation  Ediel_sol  =         0.00000000
  ---------------------------------------------------
  free energy    TOTEN  =       -21.79277611 eV

  energy without entropy =      -21.79277611  energy(sigma->0) =      -21.79277611


--------------------------------------------------------------------------------------------------------




 average (electrostatic) potential at core
  the test charge radii are     1.2296  0.9698
  (the norm of the test charge is              1.0000)
       1 -46.8781       2 -94.7134       3 -94.7134
 
 
 
 E-fermi :  -3.4215     XC(G=0):  -2.8730     alpha+bet : -2.6672


 k-point     1 :       0.0000    0.0000    0.0000
  band No.  band energies     occupation 
      1     -17.4636      2.00000
      2     -16.2555      2.00000
      3      -8.9837      2.00000
      4      -6.0230      2.00000
      5      -6.0230      2.00000
      6      -5.1617      2.00000
      7      -4.9171      2.00000
      8      -4.9171      2.00000
      9      -3.4417      2.00000
     10      -0.6694      0.00000
     11      -0.6694      0.00000
     12      -0.4460      0.00000
     13      -0.4460      0.00000
     14       1.9931      0.00000

 k-point     2 :       0.1250    0.0000    0.0000
  band No.  band energies     occupation 
      1     -17.2494      2.00000
      2     -16.1531      2.00000
      3      -8.7392      2.00000
      4      -6.4863      2.00000
      5      -5.9696      2.00000
      6      -5.7885      2.00000
      7      -5.2529      2.00000
      8      -4.4841      2.00000
      9      -3.5800      2.00000
     10      -0.9500      0.00000
     11      -0.8838      0.00000
     12      -0.6826      0.00000
     13      -0.3146      0.00000
     14       2.3600      0.00000

 k-point     3 :       0.2500    0.0000    0.0000
  band No.  band energies     occupation 
      1     -16.6807      2.00000
      2     -15.8843      2.00000
      3      -8.3731      2.00000
      4      -7.2129      2.00000
      5      -6.9505      2.00000
      6      -5.8880      2.00000
      7      -5.2015      2.00000
      8      -4.7357      2.00000
      9      -4.1479      2.00000
     10      -1.2743      0.00000
     11      -1.0976      0.00000
     12      -0.5553      0.00000
     13       0.3022      0.00000
     14       3.1783      0.00000

 k-point     4 :       0.3750    0.0000    0.0000
  band No.  band energies     occupation 
      1     -16.0055      2.00000
      2     -15.5757      2.00000
      3      -8.8103      2.00000
      4      -7.8179      2.00000
      5      -7.3458      2.00000
      6      -6.3853      2.00000
      7      -5.1450      2.00000
      8      -4.6109      2.00000
      9      -4.3429      2.00000
     10      -1.2792      0.00000
     11      -1.0004      0.00000
     12       0.1631      0.00000
     13       0.6956      0.00000
     14       3.7028      0.00000

 k-point     5 :       0.5000    0.0000    0.0000
  band No.  band energies     occupation 
      1     -15.6773      2.00000
      2     -15.4324      2.00000
      3      -9.1432      2.00000
      4      -8.1829      2.00000
      5      -7.4720      2.00000
      6      -6.5659      2.00000
      7      -5.2838      2.00000
      8      -4.3838      2.00000
      9      -4.0620      2.00000
     10      -1.2570      0.00000
     11      -0.7415      0.00000
     12       0.4616      0.00000
     13       0.8111      0.00000
     14       2.7423      0.00000

 k-point     6 :       0.1250    0.1250    0.0000
  band No.  band energies     occupation 
      1     -16.8566      2.00000
      2     -15.9660      2.00000
      3      -8.3919      2.00000
      4      -7.0503      2.00000
      5      -6.5318      2.00000
      6      -6.0668      2.00000
      7      -5.4491      2.00000
      8      -4.3496      2.00000
      9      -3.9518      2.00000
     10      -1.3493      0.00000
     11      -0.9710      0.00000
     12      -0.9590      0.00000
     13       0.2800      0.00000
     14       2.9508      0.00000

 k-point     7 :       0.2500    0.1250    0.0000
  band No.  band energies     occupation 
      1     -16.2230      2.00000
      2     -15.6674      2.00000
      3      -8.4546      2.00000
      4      -7.4770      2.00000
      5      -7.2140      2.00000
      6      -6.5711      2.00000
      7      -5.3496      2.00000
      8      -4.7118      2.00000
      9      -4.2353      2.00000
     10      -1.4327      0.00000
     11      -0.9844      0.00000
     12      -0.4891      0.00000
     13       0.7877      0.00000
     14       3.9235      0.00000

 k-point     8 :       0.3750    0.1250    0.0000
  band No.  band energies     occupation 
      1     -15.6925      2.00000
      2     -15.4234      2.00000
      3      -8.8558      2.00000
      4      -8.2401      2.00000
      5      -7.3443      2.00000
      6      -6.5880      2.00000
      7      -5.3343      2.00000
      8      -5.1936      2.00000
      9      -3.9085      2.00000
     10      -1.2382      0.00000
     11      -0.7281      0.00000
     12       0.1328      0.00000
     13       0.8212      0.00000
     14       3.2692      0.00000

 k-point     9 :       0.2500    0.2500    0.0000
  band No.  band energies     occupation 
      1     -15.7075      2.00000
      2     -15.4144      2.00000
      3      -8.4953      2.00000
      4      -8.2907      2.00000
      5      -7.0172      2.00000
      6      -6.6363      2.00000
      7      -6.3171      2.00000
      8      -5.0602      2.00000
      9      -3.9374      2.00000
     10      -1.2892      0.00000
     11      -0.6783      0.00000
     12      -0.3656      0.00000
     13       1.1091      0.00000
     14       4.1016      0.00000

 k-point    10 :       0.3750    0.2500    0.0000
  band No.  band energies     occupation 
      1     -15.4726      2.00000
      2     -15.2952      2.00000
      3      -8.6752      2.00000
      4      -8.3264      2.00000
      5      -7.3014      2.00000
      6      -6.6389      2.00000
      7      -6.4087      2.00000
      8      -5.4464      2.00000
      9      -3.5700      2.00000
     10      -1.6150      0.00000
     11      -0.3071      0.00000
     12      -0.1278      0.00000
     13       1.2542      0.00000
     14       3.5126      0.00000


--------------------------------------------------------------------------------------------------------


 soft charge-density along one line, spin component           1
         0         1         2         3         4         5         6         7         8         9
 total charge-density along one line
 
 pseudopotential strength for first ion, spin component:           1
 -9.987  -0.000   0.000   0.000   0.000   0.102   0.000  -0.000
 -0.000  -9.988  -0.000  -0.000   0.000   0.000   0.102   0.000
  0.000  -0.000  -9.967  -0.000  -0.000  -0.000   0.000   0.101
  0.000  -0.000  -0.000  -9.988  -0.000  -0.000   0.000   0.000
  0.000   0.000  -0.000  -0.000  -9.987  -0.000  -0.000   0.000
  0.102   0.000  -0.000  -0.000  -0.000   0.098  -0.000   0.000
  0.000   0.102   0.000   0.000  -0.000  -0.000   0.098   0.000
 -0.000   0.000   0.101   0.000   0.000   0.000   0.000   0.098
 -0.000   0.000   0.000   0.102   0.000   0.000  -0.000  -0.000
 -0.000  -0.000   0.000   0.000   0.102   0.000   0.000  -0.000
  0.000  -0.000  -0.005   0.000  -0.000  -0.000   0.000   0.000
 -0.000   0.000   0.001  -0.000   0.000   0.000  -0.000  -0.000
 -0.000  -0.000  -0.000  -0.000  -0.007   0.000  -0.000   0.000
 -0.000   0.000   0.000  -0.000  -0.000  -0.000  -0.000  -0.000
 -0.007  -0.000   0.000  -0.000  -0.000  -0.000  -0.000  -0.000
  0.000   0.000   0.000   0.000   0.004  -0.000   0.000  -0.000
  0.000  -0.000  -0.000   0.000   0.000  -0.000   0.000   0.000
  0.004   0.000  -0.000   0.000   0.000   0.000  -0.000   0.000
 total augmentation occupancy for first ion, spin component:           1
  0.966   0.000  -0.000   0.000  -0.000   0.610   0.000  -0.000   0.000  -0.000  -0.000   0.000   0.000   0.000  -0.066  -0.000
  0.000   0.908   0.000   0.000   0.000  -0.000   0.849   0.000   0.000   0.000   0.000   0.000   0.000   0.000  -0.000   0.000
 -0.000  -0.000   1.030   0.000   0.000  -0.000   0.000   0.511  -0.000   0.000   0.111  -0.019  -0.000   0.000   0.000   0.000
 -0.000   0.000   0.000   0.908  -0.000  -0.000   0.000  -0.000   0.849   0.000   0.000   0.000   0.000  -0.000  -0.000   0.000
 -0.000  -0.000   0.000   0.000   0.966   0.000   0.000   0.000  -0.000   0.610   0.000  -0.000  -0.066   0.000  -0.000   0.007
  0.610  -0.000  -0.000  -0.000  -0.000   0.690  -0.000  -0.000   0.000  -0.000   0.000   0.000   0.000   0.000  -0.137  -0.000
  0.000   0.849   0.000   0.000  -0.000   0.000   1.098   0.000   0.000   0.000   0.000   0.000   0.000   0.000   0.000   0.000
 -0.000   0.000   0.511  -0.000   0.000  -0.000   0.000   0.485  -0.000   0.000   0.060  -0.021  -0.000  -0.000   0.000   0.000
  0.000   0.000   0.000   0.849   0.000  -0.000   0.000   0.000   1.098   0.000  -0.000   0.000  -0.000  -0.000   0.000   0.000
 -0.000   0.000   0.000  -0.000   0.610  -0.000   0.000   0.000  -0.000   0.690   0.000   0.000  -0.137   0.000  -0.000   0.023
 -0.000   0.000   0.111   0.000   0.000   0.000   0.000   0.060   0.000   0.000   1.207  -0.185   0.000   0.000  -0.000   0.000
  0.000   0.000  -0.019   0.000  -0.000   0.000   0.000  -0.021   0.000   0.000  -0.185   0.042  -0.000   0.000   0.000   0.000
  0.000  -0.000  -0.000   0.000  -0.066   0.000   0.000  -0.000  -0.000  -0.137  -0.000   0.000   0.217   0.000   0.000  -0.032
  0.000   0.000   0.000  -0.000   0.000   0.000  -0.000   0.000  -0.000   0.000   0.000   0.000   0.000   0.264   0.000   0.000
 -0.066   0.000   0.000   0.000  -0.000  -0.137  -0.000   0.000   0.000  -0.000  -0.000  -0.000   0.000   0.000   0.217  -0.000
 -0.000   0.000   0.000   0.000   0.007  -0.000  -0.000   0.000  -0.000   0.023   0.000  -0.000  -0.032   0.000  -0.000   0.005
  0.000  -0.000   0.000   0.000   0.000  -0.000  -0.000   0.000  -0.000   0.000   0.000   0.000   0.000  -0.038   0.000   0.000
  0.007   0.000  -0.000  -0.000   0.000   0.023   0.000  -0.000   0.000   0.000   0.000   0.000  -0.000   0.000  -0.032   0.000


------------------------ aborting loop because EDIFF is reached ----------------------------------------


    CHARGE:  cpu time    0.0140: real time    0.0140
    FORLOC:  cpu time    0.0030: real time    0.0029
    FORNL :  cpu time    0.0240: real time    0.0233
    STRESS:  cpu time    0.1290: real time    0.1293
    FORCOR:  cpu time    0.0330: real time    0.0330
    FORHAR:  cpu time    0.0070: real time    0.0073
    MIXING:  cpu time    0.0020: real time    0.0018
    OFIELD:  cpu time    0.0000: real time    0.0000

  DFT-D2 method for vdW energy calculation
  -------------------------------------------------------------------

  Parameters of vdW forcefield:
         C6(Jnm^6/mol)     R0(A)
   -----------------------------
   Mo      24.670          1.639
   S        5.570          1.683

  IVDW =   1
  VDW_RADIUS =    50.000 A
  VDW_S6 =     0.750
  VDW_SR =     1.000
  VDW_D =    20.000
  LVDW_EWALD = F

  Number of pair interactions contributing to vdW energy:   12957
  Edisp (eV):   -0.59091
    FORVDW:  cpu time    0.0110: real time    0.0154

  FORCE on cell =-STRESS in cart. coord.  units (eV):
  Direction    XX          YY          ZZ          XY          YZ          ZX
  --------------------------------------------------------------------------------------
  Alpha Z    12.51391    12.51391    12.51391
  Ewald    4853.12264  4853.12308 -5419.98957     0.00019     0.00000     0.00012
  Hartree  4942.41958  4942.41958 -4904.15273     0.00002     0.00000    -0.00000
  E(xc)     -70.29506   -70.29506   -70.89877    -0.00001    -0.00000    -0.00000
  Local  -10076.26795-10076.26834 10037.45537    -0.00025     0.00000    -0.00006
  n-local   127.09167   125.70718   131.60780    -0.24736    -0.00000    -0.00001
  augment   -25.57663   -25.57649   -26.67974     0.00012     0.00000    -0.00000
  Kinetic   235.93417   238.73800   239.85301    -7.41551     0.00001     0.00002
  Fock        0.00000     0.00000     0.00000     0.00000     0.00000     0.00000
  vdW         0.16041     0.16041    -0.13425     0.00000     0.00000    -0.00000
  -------------------------------------------------------------------------------------
  Total      -0.18750    -0.18750    -0.42498    -0.00000     0.00000     0.00000
  in kB      -1.26795    -1.26795    -2.87386    -0.00000     0.00000     0.00000
  external pressure =       -1.80 kB  Pullay stress =        0.00 kB


 VOLUME and BASIS-vectors are now :
 -----------------------------------------------------------------------------
  energy-cutoff  :      350.00
  volume of cell :      236.93
      direct lattice vectors                 reciprocal lattice vectors
     3.190315730  0.000000000  0.000000000     0.313448600  0.180969634  0.000000000
    -1.595157865  2.762894468  0.000000000     0.000000000  0.361939267  0.000000000
     0.000000000  0.000000000 26.879004300     0.000000000  0.000000000  0.037203759

  length of vectors
     3.190315730  3.190315730 26.879004300     0.361939267  0.361939267  0.037203759


 FORCES acting on ions
    electron-ion (+dipol)            ewald-force                    non-local-force                 convergence-correction
 -----------------------------------------------------------------------------------------------
   -.103E-04 -.127E-05 0.398E-04   0.931E-04 -.108E-03 0.307E-06   -.139E-16 -.694E-17 0.000E+00   0.141E-08 -.226E-08 -.119E-06
   -.850E-03 0.499E-03 0.579E+03   -.864E-04 0.538E-04 -.584E+03   -.243E-16 0.000E+00 0.480E+01   -.105E-07 0.533E-08 0.263E-02
   0.861E-03 0.489E-03 -.579E+03   -.674E-05 0.538E-04 0.584E+03   -.252E-16 0.173E-17 -.480E+01   0.176E-07 0.535E-08 -.263E-02
 -----------------------------------------------------------------------------------------------
   0.311E-06 0.987E-03 0.101E-03   0.897E-14 0.972E-14 -.114E-12   -.633E-16 -.520E-17 0.888E-15   0.851E-08 0.842E-08 -.298E-06
 
 
 POSITION                                       TOTAL-FORCE (eV/Angst)
 -----------------------------------------------------------------------------------
     -0.00000      1.84193      3.71975         0.000000     -0.000000      0.000000
      1.59516      0.92096      2.15487         0.000000      0.000000      0.113277
      1.59516      0.92096      5.28464        -0.000000      0.000000     -0.113277
 -----------------------------------------------------------------------------------
    total drift:                                0.000000      0.000987      0.000101


--------------------------------------------------------------------------------------------------------



  FREE ENERGIE OF THE ION-ELECTRON SYSTEM (eV)
  ---------------------------------------------------
  free  energy   TOTEN  =       -22.38368517 eV

  energy  without entropy=      -22.38368517  energy(sigma->0) =      -22.38368517
 


--------------------------------------------------------------------------------------------------------


    POTLOK:  cpu time    0.0310: real time    0.0307


--------------------------------------------------------------------------------------------------------


     LOOP+:  cpu time    3.8444: real time    4.2749
    4ORBIT:  cpu time    0.0000: real time    0.0000
 BZINTS: Fermi energy: -3.421455; 18.000000 electrons
         Band energy:-151.632999;  BLOECHL correction:  0.000000

 total amount of memory used by VASP MPI-rank0    44205. kBytes
=======================================================================

   base      :      30000. kBytes
   nonl-proj :       5205. kBytes
   fftplans  :       2669. kBytes
   grid      :       4280. kBytes
   one-center:         31. kBytes
   wavefun   :       2020. kBytes
 
  
  
 General timing and accounting informations for this job:
 ========================================================
  
                  Total CPU time used (sec):        4.747
                            User time (sec):        4.612
                          System time (sec):        0.135
                         Elapsed time (sec):        6.716
  
                   Maximum memory used (kb):       37492.
                   Average memory used (kb):           0.
  
                          Minor page faults:        10297
                          Major page faults:          183
                 Voluntary context switches:         2506
