<?xml version="1.0" encoding="ISO-8859-1"?>
<modeling>
 <generator>
  <i name="program" type="string">vasp </i>
  <i name="version" type="string">5.4.4.18Apr17-6-g9f103f2a35  </i>
  <i name="subversion" type="string">(build Jun 30 2017 11:15:00) complex            parallel </i>
  <i name="platform" type="string">STALLO_VASP_5.4.4 </i>
  <i name="date" type="string">2019 11 08 </i>
  <i name="time" type="string">11:57:51 </i>
 </generator>
 <incar>
  <i type="string" name="PREC">normal    ! low/normal/accurate</i>
  <i type="string" name="ALGO"> Fast      ! Algorithm for electronic re</i>
  <i type="int" name="ISPIN">     1</i>
  <i type="int" name="NELMIN">     4</i>
  <i name="EDIFF">      0.00001000</i>
  <i type="int" name="NSW">     0</i>
  <i name="ENCUT">    350.00000000</i>
  <i type="logical" name="LREAL"> F  </i>
  <i type="int" name="ISMEAR">    -5</i>
  <i name="SIGMA">      0.20000000</i>
  <i type="logical" name="LWAVE"> F  </i>
  <v type="int" name="KPOINT_BSE">    -1     0     0     0</v>
 </incar>
 <structure name="primitive_cell" >
  <crystal>
   <varray name="basis" >
    <v>       3.19031573       0.00000000       0.00000000 </v>
    <v>      -1.59515786       2.76289447       0.00000000 </v>
    <v>       0.00000000       0.00000000      26.87900430 </v>
   </varray>
   <i name="volume">    236.92513614 </i>
   <varray name="rec_basis" >
    <v>       0.31344860       0.18096963       0.00000000 </v>
    <v>       0.00000000       0.36193927       0.00000000 </v>
    <v>       0.00000000       0.00000000       0.03720376 </v>
   </varray>
  </crystal>
  <varray name="positions" >
   <v>       0.33333300      -0.33333300       0.13838872 </v>
   <v>      -0.33333400       0.33333300       0.19660830 </v>
   <v>      -0.33333300       0.33333300       0.08016914 </v>
  </varray>
 </structure>
 <varray name="primitive_index" >
  <v type="int" >        1 </v>
  <v type="int" >        3 </v>
  <v type="int" >        2 </v>
 </varray>
 <kpoints>
  <generation param="Gamma">
   <v type="int" name="divisions">       8        8        1 </v>
   <v name="usershift">      0.00000000       0.00000000       0.00000000 </v>
   <v name="genvec1">      0.12500000       0.00000000       0.00000000 </v>
   <v name="genvec2">      0.00000000       0.12500000       0.00000000 </v>
   <v name="genvec3">      0.00000000       0.00000000       1.00000000 </v>
   <v name="shift">      0.00000000       0.00000000       0.00000000 </v>
  </generation>
  <varray name="kpointlist" >
   <v>       0.00000000       0.00000000       0.00000000 </v>
   <v>       0.12500000       0.00000000       0.00000000 </v>
   <v>       0.25000000       0.00000000       0.00000000 </v>
   <v>       0.37500000       0.00000000       0.00000000 </v>
   <v>       0.50000000       0.00000000       0.00000000 </v>
   <v>       0.12500000       0.12500000       0.00000000 </v>
   <v>       0.25000000       0.12500000       0.00000000 </v>
   <v>       0.37500000       0.12500000       0.00000000 </v>
   <v>       0.25000000       0.25000000       0.00000000 </v>
   <v>       0.37500000       0.25000000       0.00000000 </v>
  </varray>
  <varray name="weights" >
   <v>       0.01562500 </v>
   <v>       0.09375000 </v>
   <v>       0.09375000 </v>
   <v>       0.09375000 </v>
   <v>       0.04687500 </v>
   <v>       0.09375000 </v>
   <v>       0.18750000 </v>
   <v>       0.18750000 </v>
   <v>       0.09375000 </v>
   <v>       0.09375000 </v>
  </varray>
  <varray name="tetrahedronlist"  type="int" >
   <v type="int" >       12        2        2        2        6 </v>
   <v type="int" >       12        1        2        2        2 </v>
   <v type="int" >        6        1        1        2        2 </v>
   <v type="int" >        6        2        2        6        6 </v>
   <v type="int" >       12        3        6        6        7 </v>
   <v type="int" >       12        2        3        6        6 </v>
   <v type="int" >       12        2        2        3        6 </v>
   <v type="int" >       12        3        6        7        7 </v>
   <v type="int" >       12        3        3        6        7 </v>
   <v type="int" >       12        2        3        3        6 </v>
   <v type="int" >       12        4        7        7        8 </v>
   <v type="int" >       12        3        4        7        7 </v>
   <v type="int" >       12        3        3        4        7 </v>
   <v type="int" >       12        4        7        8        8 </v>
   <v type="int" >       12        4        4        7        8 </v>
   <v type="int" >       12        3        4        4        7 </v>
   <v type="int" >       12        5        8        8        8 </v>
   <v type="int" >       12        4        5        8        8 </v>
   <v type="int" >       12        4        4        5        8 </v>
   <v type="int" >        6        5        5        8        8 </v>
   <v type="int" >       12        4        5        5        8 </v>
   <v type="int" >       12        7        7        7        9 </v>
   <v type="int" >       12        6        7        7        7 </v>
   <v type="int" >        6        6        6        7        7 </v>
   <v type="int" >        6        7        7        9        9 </v>
   <v type="int" >       12        8        9        9       10 </v>
   <v type="int" >       12        7        8        9        9 </v>
   <v type="int" >       12        7        7        8        9 </v>
   <v type="int" >       12        8        9       10       10 </v>
   <v type="int" >       12        8        8        9       10 </v>
   <v type="int" >       12        7        8        8        9 </v>
   <v type="int" >        6        8        8       10       10 </v>
   <v type="int" >       12        8        8        8       10 </v>
   <v type="int" >        6       10       10       10       10 </v>
   <v type="int" >       12        9       10       10       10 </v>
   <v type="int" >        6        9        9       10       10 </v>
  </varray>
  <i name="volumeweight">      0.00260417 </i>
 </kpoints>
 <parameters>
  <separator name="general" >
   <i type="string" name="SYSTEM">unknown system</i>
   <i type="logical" name="LCOMPAT"> F  </i>
  </separator>
  <separator name="electronic" >
   <i type="string" name="PREC">normal</i>
   <i name="ENMAX">    350.00000000</i>
   <i name="ENAUG">    345.27800000</i>
   <i name="EDIFF">      0.00001000</i>
   <i type="int" name="IALGO">    68</i>
   <i type="int" name="IWAVPR">    10</i>
   <i type="int" name="NBANDS">    14</i>
   <i name="NELECT">     18.00000000</i>
   <i type="int" name="TURBO">     0</i>
   <i type="int" name="IRESTART">     0</i>
   <i type="int" name="NREBOOT">     0</i>
   <i type="int" name="NMIN">     0</i>
   <i name="EREF">      0.00000000</i>
   <separator name="electronic smearing" >
    <i type="int" name="ISMEAR">    -5</i>
    <i name="SIGMA">      0.20000000</i>
    <i name="KSPACING">      0.50000000</i>
    <i type="logical" name="KGAMMA"> T  </i>
   </separator>
   <separator name="electronic projectors" >
    <i type="logical" name="LREAL"> F  </i>
    <v name="ROPT">      0.00000000      0.00000000</v>
    <i type="int" name="LMAXPAW">  -100</i>
    <i type="int" name="LMAXMIX">     2</i>
    <i type="logical" name="NLSPLINE"> F  </i>
   </separator>
   <separator name="electronic startup" >
    <i type="int" name="ISTART">     0</i>
    <i type="int" name="ICHARG">     2</i>
    <i type="int" name="INIWAV">     1</i>
   </separator>
   <separator name="electronic spin" >
    <i type="int" name="ISPIN">     1</i>
    <i type="logical" name="LNONCOLLINEAR"> F  </i>
    <v name="MAGMOM">      1.00000000      1.00000000      1.00000000</v>
    <i name="NUPDOWN">     -1.00000000</i>
    <i type="logical" name="LSORBIT"> F  </i>
    <v name="SAXIS">      0.00000000      0.00000000      1.00000000</v>
    <i type="logical" name="LSPIRAL"> F  </i>
    <v name="QSPIRAL">      0.00000000      0.00000000      0.00000000</v>
    <i type="logical" name="LZEROZ"> F  </i>
   </separator>
   <separator name="electronic exchange-correlation" >
    <i type="logical" name="LASPH"> F  </i>
    <i type="logical" name="LMETAGGA"> F  </i>
   </separator>
   <separator name="electronic convergence" >
    <i type="int" name="NELM">    60</i>
    <i type="int" name="NELMDL">    -5</i>
    <i type="int" name="NELMIN">     4</i>
    <i name="ENINI">    350.00000000</i>
    <separator name="electronic convergence detail" >
     <i type="logical" name="LDIAG"> T  </i>
     <i type="logical" name="LSUBROT"> F  </i>
     <i name="WEIMIN">      0.00000000</i>
     <i name="EBREAK">      0.00000018</i>
     <i name="DEPER">      0.30000000</i>
     <i type="int" name="NRMM">     4</i>
     <i name="TIME">      0.40000000</i>
    </separator>
   </separator>
   <separator name="electronic mixer" >
    <i name="AMIX">      0.40000000</i>
    <i name="BMIX">      1.00000000</i>
    <i name="AMIN">      0.10000000</i>
    <i name="AMIX_MAG">      1.60000000</i>
    <i name="BMIX_MAG">      1.00000000</i>
    <separator name="electronic mixer details" >
     <i type="int" name="IMIX">     4</i>
     <i type="logical" name="MIXFIRST"> F  </i>
     <i type="int" name="MAXMIX">   -45</i>
     <i name="WC">    100.00000000</i>
     <i type="int" name="INIMIX">     1</i>
     <i type="int" name="MIXPRE">     1</i>
     <i type="int" name="MREMOVE">     5</i>
    </separator>
   </separator>
   <separator name="electronic dipolcorrection" >
    <i type="logical" name="LDIPOL"> F  </i>
    <i type="logical" name="LMONO"> F  </i>
    <i type="int" name="IDIPOL">     0</i>
    <i name="EPSILON">      1.00000000</i>
    <v name="DIPOL">   -100.00000000   -100.00000000   -100.00000000</v>
    <i name="EFIELD">      0.00000000</i>
   </separator>
  </separator>
  <separator name="grids" >
   <i type="int" name="NGX">    16</i>
   <i type="int" name="NGY">    16</i>
   <i type="int" name="NGZ">   126</i>
   <i type="int" name="NGXF">    32</i>
   <i type="int" name="NGYF">    32</i>
   <i type="int" name="NGZF">   252</i>
   <i type="logical" name="ADDGRID"> F  </i>
  </separator>
  <separator name="ionic" >
   <i type="int" name="NSW">     0</i>
   <i type="int" name="IBRION">    -1</i>
   <i type="int" name="MDALGO">     0</i>
   <i type="int" name="ISIF">     2</i>
   <i name="PSTRESS">      0.00000000</i>
   <i name="EDIFFG">      0.00010000</i>
   <i type="int" name="NFREE">     0</i>
   <i name="POTIM">      0.50000000</i>
   <i name="SMASS">     -3.00000000</i>
   <i name="SCALEE">      1.00000000</i>
  </separator>
  <separator name="ionic md" >
   <i name="TEBEG">      0.00010000</i>
   <i name="TEEND">      0.00010000</i>
   <i type="int" name="NBLOCK">     1</i>
   <i type="int" name="KBLOCK">     1</i>
   <i type="int" name="NPACO">   256</i>
   <i name="APACO">     16.00000000</i>
  </separator>
  <separator name="symmetry" >
   <i type="int" name="ISYM">     2</i>
   <i name="SYMPREC">      0.00001000</i>
  </separator>
  <separator name="dos" >
   <i type="int" name="LORBIT">     0</i>
   <v name="RWIGS">     -1.00000000     -1.00000000</v>
   <i type="int" name="NEDOS">   301</i>
   <i name="EMIN">     10.00000000</i>
   <i name="EMAX">    -10.00000000</i>
   <i name="EFERMI">      0.00000000</i>
  </separator>
  <separator name="writing" >
   <i type="int" name="NWRITE">     2</i>
   <i type="logical" name="LWAVE"> F  </i>
   <i type="logical" name="LDOWNSAMPLE"> F  </i>
   <i type="logical" name="LCHARG"> T  </i>
   <i type="logical" name="LPARD"> F  </i>
   <i type="logical" name="LVTOT"> F  </i>
   <i type="logical" name="LVHAR"> F  </i>
   <i type="logical" name="LELF"> F  </i>
   <i type="logical" name="LOPTICS"> F  </i>
   <v name="STM">      0.00000000      0.00000000      0.00000000      0.00000000      0.00000000      0.00000000      0.00000000</v>
  </separator>
  <separator name="performance" >
   <i type="int" name="NPAR">     2</i>
   <i type="int" name="NSIM">     4</i>
   <i type="int" name="NBLK">    -1</i>
   <i type="logical" name="LPLANE"> T  </i>
   <i type="logical" name="LSCALAPACK"> T  </i>
   <i type="logical" name="LSCAAWARE"> F  </i>
   <i type="logical" name="LSCALU"> F  </i>
   <i type="logical" name="LASYNC"> F  </i>
   <i type="logical" name="LORBITALREAL"> F  </i>
  </separator>
  <separator name="miscellaneous" >
   <i type="int" name="IDIOT">     3</i>
   <i type="int" name="ISPECIAL">     0</i>
   <i type="logical" name="LMUSIC"> F  </i>
   <v name="POMASS">     95.94000000     32.06600000</v>
   <v name="DARWINR">      0.00000000      0.00000000</v>
   <v name="DARWINV">      1.00000000      1.00000000</v>
   <i type="logical" name="LCORR"> T  </i>
  </separator>
  <i type="logical" name="GGA_COMPAT"> T  </i>
  <i type="logical" name="LBERRY"> F  </i>
  <i type="int" name="ICORELEVEL">     0</i>
  <i type="logical" name="LDAU"> F  </i>
  <i type="int" name="I_CONSTRAINED_M">     0</i>
  <separator name="electronic exchange-correlation" >
   <i type="string" name="GGA">--</i>
   <i type="int" name="VOSKOWN">     0</i>
   <i type="logical" name="LHFCALC"> F  </i>
   <i type="string" name="PRECFOCK"></i>
   <i type="logical" name="LSYMGRAD"> F  </i>
   <i type="logical" name="LHFONE"> F  </i>
   <i type="logical" name="LRHFCALC"> F  </i>
   <i type="logical" name="LTHOMAS"> F  </i>
   <i type="logical" name="LMODELHF"> F  </i>
   <i name="ENCUT4O">     -1.00000000</i>
   <i type="int" name="EXXOEP">     0</i>
   <i type="int" name="FOURORBIT">     0</i>
   <i name="AEXX">      0.00000000</i>
   <i name="HFALPHA">      0.00000000</i>
   <i name="MCALPHA">      0.00000000</i>
   <i name="ALDAX">      1.00000000</i>
   <i name="AGGAX">      1.00000000</i>
   <i name="ALDAC">      1.00000000</i>
   <i name="AGGAC">      1.00000000</i>
   <i type="int" name="NKREDX">     1</i>
   <i type="int" name="NKREDY">     1</i>
   <i type="int" name="NKREDZ">     1</i>
   <i type="logical" name="SHIFTRED"> F  </i>
   <i type="logical" name="ODDONLY"> F  </i>
   <i type="logical" name="EVENONLY"> F  </i>
   <i type="int" name="LMAXFOCK">     0</i>
   <i type="int" name="NMAXFOCKAE">     0</i>
   <i type="logical" name="LFOCKAEDFT"> F  </i>
   <i name="HFSCREEN">      0.00000000</i>
   <i name="HFSCREENC">      0.00000000</i>
   <i type="int" name="NBANDSGWLOW">     0</i>
  </separator>
  <separator name="vdW DFT" >
   <i type="logical" name="LUSE_VDW"> F  </i>
   <i name="Zab_VDW">     -0.84910000</i>
   <i name="PARAM1">      0.12340000</i>
   <i name="PARAM2">      1.00000000</i>
   <i name="PARAM3">      0.00000000</i>
  </separator>
  <separator name="model GW" >
   <i type="int" name="MODEL_GW">     0</i>
   <i name="MODEL_EPS0">     47.38502723</i>
   <i name="MODEL_ALPHA">      1.00000000</i>
  </separator>
  <separator name="linear response parameters" >
   <i type="logical" name="LEPSILON"> F  </i>
   <i type="logical" name="LRPA"> F  </i>
   <i type="logical" name="LNABLA"> F  </i>
   <i type="logical" name="LVEL"> F  </i>
   <i type="int" name="KINTER">     0</i>
   <i name="CSHIFT">      0.10000000</i>
   <i name="OMEGAMAX">     -1.00000000</i>
   <i name="DEG_THRESHOLD">      0.00200000</i>
   <i name="RTIME">     -0.10000000</i>
   <i name="WPLASMAI">      0.00000000</i>
   <v name="DFIELD">      0.00000000      0.00000000      0.00000000</v>
   <v name="WPLASMA">      0.00000000      0.00000000      0.00000000      0.00000000      0.00000000      0.00000000      0.00000000      0.00000000      0.00000000</v>
  </separator>
  <separator name="orbital magnetization" >
   <i type="logical" name="NUCIND"> F  </i>
   <v name="MAGPOS">      0.00000000      0.00000000      0.00000000</v>
   <i type="logical" name="LNICSALL"> T  </i>
   <i type="logical" name="ORBITALMAG"> F  </i>
   <i type="logical" name="LMAGBLOCH"> F  </i>
   <i type="logical" name="LCHIMAG"> F  </i>
   <i type="logical" name="LGAUGE"> T  </i>
   <i type="int" name="MAGATOM">     0</i>
   <v name="MAGDIPOL">      0.00000000      0.00000000      0.00000000</v>
   <v name="AVECCONST">      0.00000000      0.00000000      0.00000000</v>
  </separator>
  <separator name="response functions" >
   <i type="logical" name="LADDER"> F  </i>
   <i type="logical" name="LRPAFORCE"> F  </i>
   <i type="logical" name="LFXC"> F  </i>
   <i type="logical" name="LHARTREE"> T  </i>
   <i type="int" name="IBSE">     0</i>
   <v type="int" name="KPOINT">    -1     0     0     0</v>
   <i type="logical" name="LTCTE"> F  </i>
   <i type="logical" name="LTETE"> F  </i>
   <i type="logical" name="LTRIPLET"> F  </i>
   <i type="logical" name="LFXCEPS"> F  </i>
   <i type="logical" name="LFXHEG"> F  </i>
   <i type="int" name="NATURALO">     2</i>
   <i type="logical" name="L2ORDER"> F  </i>
   <i type="logical" name="LMP2LT"> F  </i>
   <i type="logical" name="LUSEW"> F  </i>
   <i name="ENCUTGW">     -2.00000000</i>
   <i name="ENCUTGWSOFT">     -2.00000000</i>
   <i name="ENCUTLF">     -1.00000000</i>
   <i type="int" name="LMAXMP2">    -1</i>
   <i name="SCISSOR">      0.00000000</i>
   <i type="int" name="NOMEGA">     0</i>
   <i type="int" name="NOMEGAR">     0</i>
   <i type="int" name="NBANDSGW">    -1</i>
   <i type="int" name="NBANDSO">    -1</i>
   <i type="int" name="NBANDSV">    -1</i>
   <i type="int" name="NELM">     1</i>
   <i type="int" name="NELMHF">     1</i>
   <i type="int" name="DIM">     3</i>
   <i type="int" name="ANTIRES">     0</i>
   <i name="OMEGAMAX">    -30.00000000</i>
   <i name="OMEGAMIN">    -30.00000000</i>
   <i name="OMEGATL">   -200.00000000</i>
   <i type="int" name="OMEGAGRID">   140</i>
   <i name="CSHIFT">     -0.10000000</i>
   <i type="logical" name="SELFENERGY"> F  </i>
   <i type="logical" name="LSPECTRAL"> F  </i>
   <i type="logical" name="LSPECTRALGW"> F  </i>
   <i type="logical" name="LSINGLES"> F  </i>
   <i type="logical" name="LFERMIGW"> F  </i>
   <i type="logical" name="ODDONLYGW"> F  </i>
   <i type="logical" name="EVENONLYGW"> F  </i>
   <i type="int" name="NKREDLFX">     1</i>
   <i type="int" name="NKREDLFY">     1</i>
   <i type="int" name="NKREDLFZ">     1</i>
   <i type="int" name="MAXMEM">  2800</i>
   <i type="int" name="TELESCOPE">     0</i>
   <i type="int" name="TAUPAR">     1</i>
   <i type="int" name="OMEGAPAR">    -1</i>
   <i name="LAMBDA">      1.00000000</i>
  </separator>
  <separator name="External order field" >
   <i name="OFIELD_KAPPA">      0.00000000</i>
   <v name="OFIELD_K">      0.00000000      0.00000000      0.00000000</v>
   <i name="OFIELD_Q6_NEAR">      0.00000000</i>
   <i name="OFIELD_Q6_FAR">      0.00000000</i>
   <i name="OFIELD_A">      0.00000000</i>
  </separator>
 </parameters>
 <atominfo>
  <atoms>       3 </atoms>
  <types>       2 </types>
  <array name="atoms" >
   <dimension dim="1">ion</dimension>
   <field type="string">element</field>
   <field type="int">atomtype</field>
   <set>
    <rc><c>Mo</c><c>   1</c></rc>
    <rc><c>S </c><c>   2</c></rc>
    <rc><c>S </c><c>   2</c></rc>
   </set>
  </array>
  <array name="atomtypes" >
   <dimension dim="1">type</dimension>
   <field type="int">atomspertype</field>
   <field type="string">element</field>
   <field>mass</field>
   <field>valence</field>
   <field type="string">pseudopotential</field>
   <set>
    <rc><c>   1</c><c>Mo</c><c>     95.94000000</c><c>      6.00000000</c><c> PAW_PBE Mo 08Apr2002                   </c></rc>
    <rc><c>   2</c><c>S </c><c>     32.06600000</c><c>      6.00000000</c><c>  PAW_PBE S 17Jan2003                   </c></rc>
   </set>
  </array>
 </atominfo>
 <structure name="initialpos" >
  <crystal>
   <varray name="basis" >
    <v>       3.19031573       0.00000000       0.00000000 </v>
    <v>      -1.59515786       2.76289447       0.00000000 </v>
    <v>       0.00000000       0.00000000      26.87900430 </v>
   </varray>
   <i name="volume">    236.92513614 </i>
   <varray name="rec_basis" >
    <v>       0.31344860       0.18096963       0.00000000 </v>
    <v>       0.00000000       0.36193927       0.00000000 </v>
    <v>       0.00000000       0.00000000       0.03720376 </v>
   </varray>
  </crystal>
  <varray name="positions" >
   <v>       0.33333300       0.66666700       0.13838872 </v>
   <v>       0.66666700       0.33333300       0.08016914 </v>
   <v>       0.66666600       0.33333300       0.19660830 </v>
  </varray>
 </structure>
 <calculation>
  <scstep>
   <time name="dav">    0.14    0.14</time>
   <time name="total">    0.18    0.21</time>
   <energy>
    <i name="alphaZ">     12.51390764 </i>
    <i name="ewald">   4286.25630342 </i>
    <i name="hartreedc">  -4967.71356795 </i>
    <i name="XCdc">    -36.31055800 </i>
    <i name="pawpsdc">    406.88651198 </i>
    <i name="pawaedc">   -329.34073203 </i>
    <i name="eentropy">      0.00000000 </i>
    <i name="bandstr">    -21.87303992 </i>
    <i name="atom">    771.14795631 </i>
    <i name="e_fr_energy">    121.56678146 </i>
    <i name="e_wo_entrp">    121.56678146 </i>
    <i name="e_0_energy">    121.56678146 </i>
   </energy>
  </scstep>
  <scstep>
   <time name="dav">    0.21    0.21</time>
   <time name="total">    0.21    0.21</time>
   <energy>
    <i name="e_fr_energy">     -9.28112224 </i>
    <i name="e_wo_entrp">     -9.28112224 </i>
    <i name="e_0_energy">     -9.28112224 </i>
   </energy>
  </scstep>
  <scstep>
   <time name="dav">    0.17    0.18</time>
   <time name="total">    0.17    0.18</time>
   <energy>
    <i name="e_fr_energy">    -23.14004570 </i>
    <i name="e_wo_entrp">    -23.14004570 </i>
    <i name="e_0_energy">    -23.14004570 </i>
   </energy>
  </scstep>
  <scstep>
   <time name="dav">    0.16    0.16</time>
   <time name="total">    0.16    0.16</time>
   <energy>
    <i name="e_fr_energy">    -23.39849127 </i>
    <i name="e_wo_entrp">    -23.39849127 </i>
    <i name="e_0_energy">    -23.39849127 </i>
   </energy>
  </scstep>
  <scstep>
   <time name="dav">    0.17    0.17</time>
   <time name="total">    0.18    0.19</time>
   <energy>
    <i name="e_fr_energy">    -23.40557933 </i>
    <i name="e_wo_entrp">    -23.40557933 </i>
    <i name="e_0_energy">    -23.40557933 </i>
   </energy>
  </scstep>
  <scstep>
   <time name="diag">    0.03    0.03</time>
   <time name="diis">    0.12    0.12</time>
   <time name="orth">    0.00    0.00</time>
   <time name="total">    0.20    0.20</time>
   <energy>
    <i name="e_fr_energy">    -22.24363787 </i>
    <i name="e_wo_entrp">    -22.24363787 </i>
    <i name="e_0_energy">    -22.24363787 </i>
   </energy>
  </scstep>
  <scstep>
   <time name="diag">    0.03    0.03</time>
   <time name="diis">    0.11    0.11</time>
   <time name="orth">    0.00    0.00</time>
   <time name="total">    0.19    0.19</time>
   <energy>
    <i name="e_fr_energy">    -21.85777937 </i>
    <i name="e_wo_entrp">    -21.85777937 </i>
    <i name="e_0_energy">    -21.85777937 </i>
   </energy>
  </scstep>
  <scstep>
   <time name="diag">    0.03    0.03</time>
   <time name="diis">    0.12    0.12</time>
   <time name="orth">    0.00    0.00</time>
   <time name="total">    0.20    0.20</time>
   <energy>
    <i name="e_fr_energy">    -21.79807931 </i>
    <i name="e_wo_entrp">    -21.79807931 </i>
    <i name="e_0_energy">    -21.79807931 </i>
   </energy>
  </scstep>
  <scstep>
   <time name="diag">    0.03    0.03</time>
   <time name="diis">    0.13    0.13</time>
   <time name="orth">    0.00    0.00</time>
   <time name="total">    0.21    0.21</time>
   <energy>
    <i name="e_fr_energy">    -21.79327086 </i>
    <i name="e_wo_entrp">    -21.79327086 </i>
    <i name="e_0_energy">    -21.79327086 </i>
   </energy>
  </scstep>
  <scstep>
   <time name="diag">    0.03    0.03</time>
   <time name="diis">    0.13    0.13</time>
   <time name="orth">    0.00    0.00</time>
   <time name="total">    0.21    0.21</time>
   <energy>
    <i name="e_fr_energy">    -21.79255869 </i>
    <i name="e_wo_entrp">    -21.79255869 </i>
    <i name="e_0_energy">    -21.79255869 </i>
   </energy>
  </scstep>
  <scstep>
   <time name="diag">    0.03    0.03</time>
   <time name="diis">    0.13    0.13</time>
   <time name="orth">    0.00    0.00</time>
   <time name="total">    0.20    0.21</time>
   <energy>
    <i name="e_fr_energy">    -21.79248998 </i>
    <i name="e_wo_entrp">    -21.79248998 </i>
    <i name="e_0_energy">    -21.79248998 </i>
   </energy>
  </scstep>
  <scstep>
   <time name="diag">    0.03    0.03</time>
   <time name="diis">    0.12    0.12</time>
   <time name="orth">    0.00    0.00</time>
   <time name="total">    0.20    0.20</time>
   <energy>
    <i name="e_fr_energy">    -21.79229737 </i>
    <i name="e_wo_entrp">    -21.79229737 </i>
    <i name="e_0_energy">    -21.79229737 </i>
   </energy>
  </scstep>
  <scstep>
   <time name="diag">    0.03    0.03</time>
   <time name="diis">    0.11    0.11</time>
   <time name="orth">    0.00    0.00</time>
   <time name="total">    0.19    0.19</time>
   <energy>
    <i name="e_fr_energy">    -21.79255290 </i>
    <i name="e_wo_entrp">    -21.79255290 </i>
    <i name="e_0_energy">    -21.79255290 </i>
   </energy>
  </scstep>
  <scstep>
   <time name="diag">    0.03    0.03</time>
   <time name="diis">    0.11    0.11</time>
   <time name="orth">    0.00    0.00</time>
   <time name="total">    0.19    0.19</time>
   <energy>
    <i name="e_fr_energy">    -21.79258174 </i>
    <i name="e_wo_entrp">    -21.79258174 </i>
    <i name="e_0_energy">    -21.79258174 </i>
   </energy>
  </scstep>
  <scstep>
   <time name="diag">    0.03    0.03</time>
   <time name="diis">    0.09    0.09</time>
   <time name="orth">    0.00    0.00</time>
   <time name="total">    0.17    0.17</time>
   <energy>
    <i name="e_fr_energy">    -21.79268548 </i>
    <i name="e_wo_entrp">    -21.79268548 </i>
    <i name="e_0_energy">    -21.79268548 </i>
   </energy>
  </scstep>
  <scstep>
   <time name="diag">    0.03    0.03</time>
   <time name="diis">    0.09    0.09</time>
   <time name="orth">    0.00    0.00</time>
   <time name="total">    0.17    0.17</time>
   <energy>
    <i name="e_fr_energy">    -21.79271949 </i>
    <i name="e_wo_entrp">    -21.79271949 </i>
    <i name="e_0_energy">    -21.79271949 </i>
   </energy>
  </scstep>
  <scstep>
   <time name="diag">    0.03    0.03</time>
   <time name="diis">    0.08    0.08</time>
   <time name="orth">    0.00    0.00</time>
   <time name="total">    0.16    0.16</time>
   <energy>
    <i name="e_fr_energy">    -21.79276857 </i>
    <i name="e_wo_entrp">    -21.79276857 </i>
    <i name="e_0_energy">    -21.79276857 </i>
   </energy>
  </scstep>
  <scstep>
   <time name="diag">    0.03    0.03</time>
   <time name="diis">    0.07    0.07</time>
   <time name="orth">    0.00    0.00</time>
   <time name="total">    0.13    0.13</time>
   <energy>
    <i name="alphaZ">     12.51390764 </i>
    <i name="ewald">   4286.25630342 </i>
    <i name="hartreedc">  -4980.68408596 </i>
    <i name="XCdc">    -35.20432883 </i>
    <i name="pawpsdc">    472.53975665 </i>
    <i name="pawaedc">   -396.72928590 </i>
    <i name="eentropy">      0.00000000 </i>
    <i name="bandstr">   -151.63299944 </i>
    <i name="atom">    771.14795631 </i>
    <i name="e_fr_energy">    -21.79277611 </i>
    <i name="e_wo_entrp">    -21.79277611 </i>
    <i name="e_0_energy">    -21.79277611 </i>
   </energy>
  </scstep>
  <structure>
   <crystal>
    <varray name="basis" >
     <v>       3.19031573       0.00000000       0.00000000 </v>
     <v>      -1.59515786       2.76289447       0.00000000 </v>
     <v>       0.00000000       0.00000000      26.87900430 </v>
    </varray>
    <i name="volume">    236.92513614 </i>
    <varray name="rec_basis" >
     <v>       0.31344860       0.18096963       0.00000000 </v>
     <v>       0.00000000       0.36193927       0.00000000 </v>
     <v>       0.00000000       0.00000000       0.03720376 </v>
    </varray>
   </crystal>
   <varray name="positions" >
    <v>       0.33333300       0.66666700       0.13838872 </v>
    <v>       0.66666700       0.33333300       0.08016914 </v>
    <v>       0.66666600       0.33333300       0.19660830 </v>
   </varray>
  </structure>
  <varray name="forces" >
   <v>       0.00000000      -0.00000000       0.00000000 </v>
   <v>       0.00000000       0.00000000       0.11327670 </v>
   <v>      -0.00000000       0.00000000      -0.11327670 </v>
  </varray>
  <varray name="stress" >
   <v>      -1.26794789      -0.00000000       0.00000000 </v>
   <v>      -0.00000000      -1.26794789       0.00000000 </v>
   <v>       0.00000000       0.00000000      -2.87386376 </v>
  </varray>
  <energy>
   <i name="e_fr_energy">    -22.38368517 </i>
   <i name="e_wo_entrp">    -22.38368517 </i>
   <i name="e_0_energy">      0.00000000 </i>
  </energy>
  <time name="totalsc">    3.84    4.27</time>
  <eigenvalues>
   <array>
    <dimension dim="1">band</dimension>
    <dimension dim="2">kpoint</dimension>
    <dimension dim="3">spin</dimension>
    <field>eigene</field>
    <field>occ</field>
    <set>
     <set comment="spin 1">
      <set comment="kpoint 1">
       <r>  -17.4636    1.0000 </r>
       <r>  -16.2555    1.0000 </r>
       <r>   -8.9837    1.0000 </r>
       <r>   -6.0230    1.0000 </r>
       <r>   -6.0230    1.0000 </r>
       <r>   -5.1617    1.0000 </r>
       <r>   -4.9171    1.0000 </r>
       <r>   -4.9171    1.0000 </r>
       <r>   -3.4417    1.0000 </r>
       <r>   -0.6694    0.0000 </r>
       <r>   -0.6694    0.0000 </r>
       <r>   -0.4460    0.0000 </r>
       <r>   -0.4460    0.0000 </r>
       <r>    1.9931    0.0000 </r>
      </set>
      <set comment="kpoint 2">
       <r>  -17.2494    1.0000 </r>
       <r>  -16.1531    1.0000 </r>
       <r>   -8.7392    1.0000 </r>
       <r>   -6.4863    1.0000 </r>
       <r>   -5.9696    1.0000 </r>
       <r>   -5.7885    1.0000 </r>
       <r>   -5.2529    1.0000 </r>
       <r>   -4.4841    1.0000 </r>
       <r>   -3.5800    1.0000 </r>
       <r>   -0.9500    0.0000 </r>
       <r>   -0.8838    0.0000 </r>
       <r>   -0.6826    0.0000 </r>
       <r>   -0.3146    0.0000 </r>
       <r>    2.3600    0.0000 </r>
      </set>
      <set comment="kpoint 3">
       <r>  -16.6807    1.0000 </r>
       <r>  -15.8843    1.0000 </r>
       <r>   -8.3731    1.0000 </r>
       <r>   -7.2129    1.0000 </r>
       <r>   -6.9505    1.0000 </r>
       <r>   -5.8880    1.0000 </r>
       <r>   -5.2015    1.0000 </r>
       <r>   -4.7357    1.0000 </r>
       <r>   -4.1479    1.0000 </r>
       <r>   -1.2743    0.0000 </r>
       <r>   -1.0976    0.0000 </r>
       <r>   -0.5553    0.0000 </r>
       <r>    0.3022    0.0000 </r>
       <r>    3.1783    0.0000 </r>
      </set>
      <set comment="kpoint 4">
       <r>  -16.0055    1.0000 </r>
       <r>  -15.5757    1.0000 </r>
       <r>   -8.8103    1.0000 </r>
       <r>   -7.8179    1.0000 </r>
       <r>   -7.3458    1.0000 </r>
       <r>   -6.3853    1.0000 </r>
       <r>   -5.1450    1.0000 </r>
       <r>   -4.6109    1.0000 </r>
       <r>   -4.3429    1.0000 </r>
       <r>   -1.2792    0.0000 </r>
       <r>   -1.0004    0.0000 </r>
       <r>    0.1631    0.0000 </r>
       <r>    0.6956    0.0000 </r>
       <r>    3.7028    0.0000 </r>
      </set>
      <set comment="kpoint 5">
       <r>  -15.6773    1.0000 </r>
       <r>  -15.4324    1.0000 </r>
       <r>   -9.1432    1.0000 </r>
       <r>   -8.1829    1.0000 </r>
       <r>   -7.4720    1.0000 </r>
       <r>   -6.5659    1.0000 </r>
       <r>   -5.2838    1.0000 </r>
       <r>   -4.3838    1.0000 </r>
       <r>   -4.0620    1.0000 </r>
       <r>   -1.2570    0.0000 </r>
       <r>   -0.7415    0.0000 </r>
       <r>    0.4616    0.0000 </r>
       <r>    0.8111    0.0000 </r>
       <r>    2.7423    0.0000 </r>
      </set>
      <set comment="kpoint 6">
       <r>  -16.8566    1.0000 </r>
       <r>  -15.9660    1.0000 </r>
       <r>   -8.3919    1.0000 </r>
       <r>   -7.0503    1.0000 </r>
       <r>   -6.5318    1.0000 </r>
       <r>   -6.0668    1.0000 </r>
       <r>   -5.4491    1.0000 </r>
       <r>   -4.3496    1.0000 </r>
       <r>   -3.9518    1.0000 </r>
       <r>   -1.3493    0.0000 </r>
       <r>   -0.9710    0.0000 </r>
       <r>   -0.9590    0.0000 </r>
       <r>    0.2800    0.0000 </r>
       <r>    2.9508    0.0000 </r>
      </set>
      <set comment="kpoint 7">
       <r>  -16.2230    1.0000 </r>
       <r>  -15.6674    1.0000 </r>
       <r>   -8.4546    1.0000 </r>
       <r>   -7.4770    1.0000 </r>
       <r>   -7.2140    1.0000 </r>
       <r>   -6.5711    1.0000 </r>
       <r>   -5.3496    1.0000 </r>
       <r>   -4.7118    1.0000 </r>
       <r>   -4.2353    1.0000 </r>
       <r>   -1.4327    0.0000 </r>
       <r>   -0.9844    0.0000 </r>
       <r>   -0.4891    0.0000 </r>
       <r>    0.7877    0.0000 </r>
       <r>    3.9235    0.0000 </r>
      </set>
      <set comment="kpoint 8">
       <r>  -15.6925    1.0000 </r>
       <r>  -15.4234    1.0000 </r>
       <r>   -8.8558    1.0000 </r>
       <r>   -8.2401    1.0000 </r>
       <r>   -7.3443    1.0000 </r>
       <r>   -6.5880    1.0000 </r>
       <r>   -5.3343    1.0000 </r>
       <r>   -5.1936    1.0000 </r>
       <r>   -3.9085    1.0000 </r>
       <r>   -1.2382    0.0000 </r>
       <r>   -0.7281    0.0000 </r>
       <r>    0.1328    0.0000 </r>
       <r>    0.8212    0.0000 </r>
       <r>    3.2692    0.0000 </r>
      </set>
      <set comment="kpoint 9">
       <r>  -15.7075    1.0000 </r>
       <r>  -15.4144    1.0000 </r>
       <r>   -8.4953    1.0000 </r>
       <r>   -8.2907    1.0000 </r>
       <r>   -7.0172    1.0000 </r>
       <r>   -6.6363    1.0000 </r>
       <r>   -6.3171    1.0000 </r>
       <r>   -5.0602    1.0000 </r>
       <r>   -3.9374    1.0000 </r>
       <r>   -1.2892    0.0000 </r>
       <r>   -0.6783    0.0000 </r>
       <r>   -0.3656    0.0000 </r>
       <r>    1.1091    0.0000 </r>
       <r>    4.1016    0.0000 </r>
      </set>
      <set comment="kpoint 10">
       <r>  -15.4726    1.0000 </r>
       <r>  -15.2952    1.0000 </r>
       <r>   -8.6752    1.0000 </r>
       <r>   -8.3264    1.0000 </r>
       <r>   -7.3014    1.0000 </r>
       <r>   -6.6389    1.0000 </r>
       <r>   -6.4087    1.0000 </r>
       <r>   -5.4464    1.0000 </r>
       <r>   -3.5700    1.0000 </r>
       <r>   -1.6150    0.0000 </r>
       <r>   -0.3071    0.0000 </r>
       <r>   -0.1278    0.0000 </r>
       <r>    1.2542    0.0000 </r>
       <r>    3.5126    0.0000 </r>
      </set>
     </set>
    </set>
   </array>
  </eigenvalues>
  <separator name="orbital magnetization" >
   <v name="MAGDIPOLOUT">      0.00000000      0.00000000      0.00000000</v>
  </separator>
  <dos>
   <i name="efermi">     -3.42145516 </i>
   <total>
    <array>
     <dimension dim="1">gridpoints</dimension>
     <dimension dim="2">spin</dimension>
     <field>energy</field>
     <field>total</field>
     <field>integrated</field>
     <set>
      <set comment="spin 1">
       <r>   -19.4636     0.0000     0.0000 </r>
       <r>   -19.3784     0.0000     0.0000 </r>
       <r>   -19.2931     0.0000     0.0000 </r>
       <r>   -19.2079     0.0000     0.0000 </r>
       <r>   -19.1227     0.0000     0.0000 </r>
       <r>   -19.0375     0.0000     0.0000 </r>
       <r>   -18.9523     0.0000     0.0000 </r>
       <r>   -18.8670     0.0000     0.0000 </r>
       <r>   -18.7818     0.0000     0.0000 </r>
       <r>   -18.6966     0.0000     0.0000 </r>
       <r>   -18.6114     0.0000     0.0000 </r>
       <r>   -18.5262     0.0000     0.0000 </r>
       <r>   -18.4410     0.0000     0.0000 </r>
       <r>   -18.3557     0.0000     0.0000 </r>
       <r>   -18.2705     0.0000     0.0000 </r>
       <r>   -18.1853     0.0000     0.0000 </r>
       <r>   -18.1001     0.0000     0.0000 </r>
       <r>   -18.0149     0.0000     0.0000 </r>
       <r>   -17.9297     0.0000     0.0000 </r>
       <r>   -17.8444     0.0000     0.0000 </r>
       <r>   -17.7592     0.0000     0.0000 </r>
       <r>   -17.6740     0.0000     0.0000 </r>
       <r>   -17.5888     0.0000     0.0000 </r>
       <r>   -17.5036     0.0000     0.0000 </r>
       <r>   -17.4184     0.1848     0.0042 </r>
       <r>   -17.3331     0.5332     0.0348 </r>
       <r>   -17.2479     0.4780     0.0945 </r>
       <r>   -17.1627     0.5175     0.1369 </r>
       <r>   -17.0775     0.5570     0.1827 </r>
       <r>   -16.9923     0.5965     0.2318 </r>
       <r>   -16.9071     0.6360     0.2843 </r>
       <r>   -16.8218     0.6622     0.3400 </r>
       <r>   -16.7366     0.6693     0.3967 </r>
       <r>   -16.6514     0.6854     0.4542 </r>
       <r>   -16.5662     0.7184     0.5140 </r>
       <r>   -16.4810     0.7514     0.5766 </r>
       <r>   -16.3958     0.7844     0.6420 </r>
       <r>   -16.3105     0.8174     0.7103 </r>
       <r>   -16.2253     1.3898     0.7895 </r>
       <r>   -16.1401     2.0617     0.9711 </r>
       <r>   -16.0549     2.3566     1.1594 </r>
       <r>   -15.9697     2.6764     1.3732 </r>
       <r>   -15.8845     2.8921     1.6107 </r>
       <r>   -15.7992     3.2304     1.8716 </r>
       <r>   -15.7140     3.5690     2.1613 </r>
       <r>   -15.6288     4.2206     2.6181 </r>
       <r>   -15.5436     4.2431     2.9757 </r>
       <r>   -15.4584     3.7669     3.3670 </r>
       <r>   -15.3731     3.3462     3.7771 </r>
       <r>   -15.2879     0.0000     4.0000 </r>
       <r>   -15.2027     0.0000     4.0000 </r>
       <r>   -15.1175     0.0000     4.0000 </r>
       <r>   -15.0323     0.0000     4.0000 </r>
       <r>   -14.9471     0.0000     4.0000 </r>
       <r>   -14.8618     0.0000     4.0000 </r>
       <r>   -14.7766     0.0000     4.0000 </r>
       <r>   -14.6914     0.0000     4.0000 </r>
       <r>   -14.6062     0.0000     4.0000 </r>
       <r>   -14.5210     0.0000     4.0000 </r>
       <r>   -14.4358     0.0000     4.0000 </r>
       <r>   -14.3505     0.0000     4.0000 </r>
       <r>   -14.2653     0.0000     4.0000 </r>
       <r>   -14.1801     0.0000     4.0000 </r>
       <r>   -14.0949     0.0000     4.0000 </r>
       <r>   -14.0097     0.0000     4.0000 </r>
       <r>   -13.9245     0.0000     4.0000 </r>
       <r>   -13.8392     0.0000     4.0000 </r>
       <r>   -13.7540     0.0000     4.0000 </r>
       <r>   -13.6688     0.0000     4.0000 </r>
       <r>   -13.5836     0.0000     4.0000 </r>
       <r>   -13.4984     0.0000     4.0000 </r>
       <r>   -13.4132     0.0000     4.0000 </r>
       <r>   -13.3279     0.0000     4.0000 </r>
       <r>   -13.2427     0.0000     4.0000 </r>
       <r>   -13.1575     0.0000     4.0000 </r>
       <r>   -13.0723     0.0000     4.0000 </r>
       <r>   -12.9871     0.0000     4.0000 </r>
       <r>   -12.9019     0.0000     4.0000 </r>
       <r>   -12.8166     0.0000     4.0000 </r>
       <r>   -12.7314     0.0000     4.0000 </r>
       <r>   -12.6462     0.0000     4.0000 </r>
       <r>   -12.5610     0.0000     4.0000 </r>
       <r>   -12.4758     0.0000     4.0000 </r>
       <r>   -12.3906     0.0000     4.0000 </r>
       <r>   -12.3053     0.0000     4.0000 </r>
       <r>   -12.2201     0.0000     4.0000 </r>
       <r>   -12.1349     0.0000     4.0000 </r>
       <r>   -12.0497     0.0000     4.0000 </r>
       <r>   -11.9645     0.0000     4.0000 </r>
       <r>   -11.8792     0.0000     4.0000 </r>
       <r>   -11.7940     0.0000     4.0000 </r>
       <r>   -11.7088     0.0000     4.0000 </r>
       <r>   -11.6236     0.0000     4.0000 </r>
       <r>   -11.5384     0.0000     4.0000 </r>
       <r>   -11.4532     0.0000     4.0000 </r>
       <r>   -11.3679     0.0000     4.0000 </r>
       <r>   -11.2827     0.0000     4.0000 </r>
       <r>   -11.1975     0.0000     4.0000 </r>
       <r>   -11.1123     0.0000     4.0000 </r>
       <r>   -11.0271     0.0000     4.0000 </r>
       <r>   -10.9419     0.0000     4.0000 </r>
       <r>   -10.8566     0.0000     4.0000 </r>
       <r>   -10.7714     0.0000     4.0000 </r>
       <r>   -10.6862     0.0000     4.0000 </r>
       <r>   -10.6010     0.0000     4.0000 </r>
       <r>   -10.5158     0.0000     4.0000 </r>
       <r>   -10.4306     0.0000     4.0000 </r>
       <r>   -10.3453     0.0000     4.0000 </r>
       <r>   -10.2601     0.0000     4.0000 </r>
       <r>   -10.1749     0.0000     4.0000 </r>
       <r>   -10.0897     0.0000     4.0000 </r>
       <r>   -10.0045     0.0000     4.0000 </r>
       <r>    -9.9193     0.0000     4.0000 </r>
       <r>    -9.8340     0.0000     4.0000 </r>
       <r>    -9.7488     0.0000     4.0000 </r>
       <r>    -9.6636     0.0000     4.0000 </r>
       <r>    -9.5784     0.0000     4.0000 </r>
       <r>    -9.4932     0.0000     4.0000 </r>
       <r>    -9.4080     0.0000     4.0000 </r>
       <r>    -9.3227     0.0000     4.0000 </r>
       <r>    -9.2375     0.0000     4.0000 </r>
       <r>    -9.1523     0.0000     4.0000 </r>
       <r>    -9.0671     0.4709     4.0179 </r>
       <r>    -8.9819     1.0044     4.0805 </r>
       <r>    -8.8967     1.7991     4.2000 </r>
       <r>    -8.8114     2.6333     4.3966 </r>
       <r>    -8.7262     2.8502     4.6376 </r>
       <r>    -8.6410     3.8188     4.9543 </r>
       <r>    -8.5558     3.1536     5.2514 </r>
       <r>    -8.4706     4.9423     5.5221 </r>
       <r>    -8.3853     3.7940     5.9767 </r>
       <r>    -8.3001     5.2458     6.1692 </r>
       <r>    -8.2149     2.7236     6.4998 </r>
       <r>    -8.1297     1.3270     6.6388 </r>
       <r>    -8.0445     1.1915     6.7461 </r>
       <r>    -7.9593     1.0560     6.8419 </r>
       <r>    -7.8740     0.9205     6.9261 </r>
       <r>    -7.7888     0.8328     6.9995 </r>
       <r>    -7.7036     0.8376     7.0707 </r>
       <r>    -7.6184     0.8423     7.1422 </r>
       <r>    -7.5332     0.8471     7.2142 </r>
       <r>    -7.4480     1.8934     7.3027 </r>
       <r>    -7.3627     4.8494     7.5900 </r>
       <r>    -7.2775     5.1703     8.1241 </r>
       <r>    -7.1923     5.1423     8.5445 </r>
       <r>    -7.1071     3.2505     8.9022 </r>
       <r>    -7.0219     1.4420     9.0997 </r>
       <r>    -6.9367     1.1864     9.2080 </r>
       <r>    -6.8514     1.0903     9.3050 </r>
       <r>    -6.7662     0.9941     9.3938 </r>
       <r>    -6.6810     0.8980     9.4744 </r>
       <r>    -6.5958    11.7242    10.0560 </r>
       <r>    -6.5106     3.8235    10.6375 </r>
       <r>    -6.4254     2.3871    10.9039 </r>
       <r>    -6.3401     2.3811    11.1874 </r>
       <r>    -6.2549     1.8376    11.3537 </r>
       <r>    -6.1697     1.7259    11.5055 </r>
       <r>    -6.0845     1.6142    11.6479 </r>
       <r>    -5.9993     3.5248    11.8143 </r>
       <r>    -5.9141     2.1554    12.0607 </r>
       <r>    -5.8288     1.6829    12.2373 </r>
       <r>    -5.7436     0.8722    12.3357 </r>
       <r>    -5.6584     0.8658    12.4097 </r>
       <r>    -5.5732     0.8593    12.4832 </r>
       <r>    -5.4880     0.8529    12.5562 </r>
       <r>    -5.4028     3.7379    12.7364 </r>
       <r>    -5.3175     9.3156    13.2499 </r>
       <r>    -5.2323     6.9910    13.9652 </r>
       <r>    -5.1471     1.8335    14.3490 </r>
       <r>    -5.0619     1.4982    14.4859 </r>
       <r>    -4.9767     1.4515    14.6115 </r>
       <r>    -4.8914     1.4765    14.7342 </r>
       <r>    -4.8062     1.6602    14.8678 </r>
       <r>    -4.7210     4.3420    15.0354 </r>
       <r>    -4.6358     3.2585    15.4313 </r>
       <r>    -4.5506     2.2949    15.6429 </r>
       <r>    -4.4654     2.7021    15.8468 </r>
       <r>    -4.3801     0.6635    15.9899 </r>
       <r>    -4.2949     1.3900    16.0333 </r>
       <r>    -4.2097     4.2270    16.2783 </r>
       <r>    -4.1245     3.7099    16.6139 </r>
       <r>    -4.0393     3.3917    16.9170 </r>
       <r>    -3.9541     3.0272    17.1905 </r>
       <r>    -3.8688     2.1110    17.4136 </r>
       <r>    -3.7836     1.7972    17.5801 </r>
       <r>    -3.6984     1.4834    17.7199 </r>
       <r>    -3.6132     1.1695    17.8329 </r>
       <r>    -3.5280     0.8462    17.9635 </r>
       <r>    -3.4428     0.0103    18.0000 </r>
       <r>    -3.3575     0.0000    18.0000 </r>
       <r>    -3.2723     0.0000    18.0000 </r>
       <r>    -3.1871     0.0000    18.0000 </r>
       <r>    -3.1019     0.0000    18.0000 </r>
       <r>    -3.0167     0.0000    18.0000 </r>
       <r>    -2.9315     0.0000    18.0000 </r>
       <r>    -2.8462     0.0000    18.0000 </r>
       <r>    -2.7610     0.0000    18.0000 </r>
       <r>    -2.6758     0.0000    18.0000 </r>
       <r>    -2.5906     0.0000    18.0000 </r>
       <r>    -2.5054     0.0000    18.0000 </r>
       <r>    -2.4202     0.0000    18.0000 </r>
       <r>    -2.3349     0.0000    18.0000 </r>
       <r>    -2.2497     0.0000    18.0000 </r>
       <r>    -2.1645     0.0000    18.0000 </r>
       <r>    -2.0793     0.0000    18.0000 </r>
       <r>    -1.9941     0.0000    18.0000 </r>
       <r>    -1.9089     0.0000    18.0000 </r>
       <r>    -1.8236     0.0000    18.0000 </r>
       <r>    -1.7384     0.0000    18.0000 </r>
       <r>    -1.6532     0.0000    18.0000 </r>
       <r>    -1.5680     0.6982    18.0612 </r>
       <r>    -1.4828     0.9206    18.1302 </r>
       <r>    -1.3975     5.8831    18.3640 </r>
       <r>    -1.3123     8.2687    18.9842 </r>
       <r>    -1.2271     0.9462    19.7101 </r>
       <r>    -1.1419     0.7997    19.7844 </r>
       <r>    -1.0567     3.6849    19.9083 </r>
       <r>    -0.9715     4.9548    20.5134 </r>
       <r>    -0.8862     5.6281    20.9402 </r>
       <r>    -0.8010     4.7896    21.3336 </r>
       <r>    -0.7158     4.0510    21.8304 </r>
       <r>    -0.6306     3.2794    22.1453 </r>
       <r>    -0.5454     2.4453    22.3888 </r>
       <r>    -0.4602     2.7028    22.5961 </r>
       <r>    -0.3749     2.6276    22.8161 </r>
       <r>    -0.2897     1.8772    23.0738 </r>
       <r>    -0.2045     2.3788    23.2551 </r>
       <r>    -0.1193     2.0356    23.5035 </r>
       <r>    -0.0341     1.9743    23.6743 </r>
       <r>     0.0511     1.9129    23.8400 </r>
       <r>     0.1364     1.7643    23.9999 </r>
       <r>     0.2216     1.9125    24.1735 </r>
       <r>     0.3068     1.6201    24.3203 </r>
       <r>     0.3920     1.2464    24.4424 </r>
       <r>     0.4772     0.9595    24.5334 </r>
       <r>     0.5624     1.0592    24.6194 </r>
       <r>     0.6477     1.1589    24.7139 </r>
       <r>     0.7329     3.0452    24.8502 </r>
       <r>     0.8181    15.6144    25.2950 </r>
       <r>     0.9033     1.8054    25.5118 </r>
       <r>     0.9885     1.4766    25.6517 </r>
       <r>     1.0737     1.1477    25.7635 </r>
       <r>     1.1590     1.1078    25.8545 </r>
       <r>     1.2442     1.2731    25.9559 </r>
       <r>     1.3294     0.0000    26.0000 </r>
       <r>     1.4146     0.0000    26.0000 </r>
       <r>     1.4998     0.0000    26.0000 </r>
       <r>     1.5850     0.0000    26.0000 </r>
       <r>     1.6703     0.0000    26.0000 </r>
       <r>     1.7555     0.0000    26.0000 </r>
       <r>     1.8407     0.0000    26.0000 </r>
       <r>     1.9259     0.0000    26.0000 </r>
       <r>     2.0111     0.0251    26.0002 </r>
       <r>     2.0963     0.1438    26.0074 </r>
       <r>     2.1816     0.2625    26.0247 </r>
       <r>     2.2668     0.3812    26.0522 </r>
       <r>     2.3520     0.4998    26.0897 </r>
       <r>     2.4372     0.3358    26.1190 </r>
       <r>     2.5224     0.3561    26.1484 </r>
       <r>     2.6077     0.3764    26.1797 </r>
       <r>     2.6929     0.3968    26.2126 </r>
       <r>     2.7781     0.4677    26.2482 </r>
       <r>     2.8633     0.6088    26.2940 </r>
       <r>     2.9485     0.7498    26.3519 </r>
       <r>     3.0337     0.8609    26.4206 </r>
       <r>     3.1190     0.9713    26.4987 </r>
       <r>     3.2042     1.1013    26.5864 </r>
       <r>     3.2894     1.6584    26.6957 </r>
       <r>     3.3746     1.6956    26.8386 </r>
       <r>     3.4598     1.7328    26.9847 </r>
       <r>     3.5450     2.0887    27.1755 </r>
       <r>     3.6303     2.1266    27.3552 </r>
       <r>     3.7155     2.0850    27.5375 </r>
       <r>     3.8007     1.5896    27.6941 </r>
       <r>     3.8859     1.0943    27.8084 </r>
       <r>     3.9711     1.2717    27.9171 </r>
       <r>     4.0563     0.4408    27.9900 </r>
       <r>     4.1416     0.0000    28.0000 </r>
       <r>     4.2268     0.0000    28.0000 </r>
       <r>     4.3120     0.0000    28.0000 </r>
       <r>     4.3972     0.0000    28.0000 </r>
       <r>     4.4824     0.0000    28.0000 </r>
       <r>     4.5676     0.0000    28.0000 </r>
       <r>     4.6529     0.0000    28.0000 </r>
       <r>     4.7381     0.0000    28.0000 </r>
       <r>     4.8233     0.0000    28.0000 </r>
       <r>     4.9085     0.0000    28.0000 </r>
       <r>     4.9937     0.0000    28.0000 </r>
       <r>     5.0789     0.0000    28.0000 </r>
       <r>     5.1642     0.0000    28.0000 </r>
       <r>     5.2494     0.0000    28.0000 </r>
       <r>     5.3346     0.0000    28.0000 </r>
       <r>     5.4198     0.0000    28.0000 </r>
       <r>     5.5050     0.0000    28.0000 </r>
       <r>     5.5902     0.0000    28.0000 </r>
       <r>     5.6755     0.0000    28.0000 </r>
       <r>     5.7607     0.0000    28.0000 </r>
       <r>     5.8459     0.0000    28.0000 </r>
       <r>     5.9311     0.0000    28.0000 </r>
       <r>     6.0163     0.0000    28.0000 </r>
       <r>     6.1016     0.0000    28.0000 </r>
      </set>
     </set>
    </array>
   </total>
  </dos>
 </calculation>
 <structure name="finalpos" >
  <crystal>
   <varray name="basis" >
    <v>       3.19031573       0.00000000       0.00000000 </v>
    <v>      -1.59515786       2.76289447       0.00000000 </v>
    <v>       0.00000000       0.00000000      26.87900430 </v>
   </varray>
   <i name="volume">    236.92513614 </i>
   <varray name="rec_basis" >
    <v>       0.31344860       0.18096963       0.00000000 </v>
    <v>       0.00000000       0.36193927       0.00000000 </v>
    <v>       0.00000000       0.00000000       0.03720376 </v>
   </varray>
  </crystal>
  <varray name="positions" >
   <v>       0.33333300       0.66666700       0.13838872 </v>
   <v>       0.66666700       0.33333300       0.08016914 </v>
   <v>       0.66666600       0.33333300       0.19660830 </v>
  </varray>
 </structure>
</modeling>
