unknown system                          
   1.00000000000000     
     3.190316    0.000000    0.000000
    -1.595158    2.762894    0.000000
     0.000000    0.000000   40.879004
   Mo   S 
     1     2
Direct
  0.333333  0.666667  0.090994
  0.666667  0.333333  0.052713
  0.666666  0.333333  0.129275
 
   24   24  320
 0.56206     0.57039     0.59279     0.63157     0.69065     0.76913     0.86039     0.95643      1.0502      1.1357    
  1.2072      1.2564      1.2714      1.2454      1.1882      1.1201      1.0502     0.97021     0.87413     0.77425    
 0.69063     0.63147     0.59238     0.56919     0.56997     0.57077     0.59131     0.63243     0.69686     0.78556    
 0.89596      1.0219      1.1521      1.2722      1.3719      1.4484      1.4959      1.4994      1.4479      1.3528    
  1.2409      1.1296      1.0184     0.90394     0.79417     0.70194     0.63399     0.59048     0.59300     0.57969    
 0.59228     0.63317     0.70197     0.79621     0.91566      1.0601      1.2212      1.3802      1.5182      1.6254    
  1.6995      1.7353      1.7204      1.6450      1.5162      1.3593      1.2015      1.0556     0.92161     0.80079    
 0.70170     0.63241     0.63395     0.60202     0.59754     0.63026     0.70218     0.80289     0.92795      1.0829    
  1.2642      1.4528      1.6279      1.7751      1.8810      1.9361      1.9426      1.9031      1.8073      1.6491    
  1.4523      1.2575      1.0847     0.93040     0.79595     0.69551     0.69063     0.64084     0.61417     0.62511    
 0.69064     0.79710     0.92662      1.0874      1.2863      1.4999      1.7008      1.8833      2.0363      2.1270    
  2.1412      2.1048      2.0363      1.9138      1.7224      1.4978      1.2863      1.0960     0.92099     0.77964    
 0.75740     0.68956     0.64621     0.62700     0.66890     0.77332     0.90479      1.0607      1.2675      1.5102    
  1.7382      1.9391      2.1305      2.2843      2.3424      2.3057      2.2284      2.1238      1.9562      1.7285    
  1.4947      1.2815      1.0748     0.88632     0.83610     0.73853     0.68695     0.64468     0.64901     0.73601    
 0.86880      1.0125      1.2018      1.4592      1.7250      1.9446      2.1438      2.3440      2.4813      2.4954    
  2.4218      2.3162      2.1628      1.9370      1.6844      1.4572      1.2402      1.0168     0.93495     0.78873    
 0.72368     0.67464     0.64286     0.69297     0.82196     0.96389      1.1211      1.3550      1.6467      1.9036    
  2.1046      2.3048      2.4942      2.5873      2.5621      2.4776      2.3491      2.1374      1.8648      1.6114    
  1.3922      1.1609      1.0502     0.85083     0.75162     0.70199     0.65170     0.65337     0.75684     0.90699    
  1.0502      1.2373      1.5133      1.8070      2.0363      2.2267      2.4192      2.5611      2.5917      2.5443    
  2.4598      2.2984      2.0363      1.7518      1.5156      1.2932      1.1576     0.92767     0.77945     0.71581    
 0.66547     0.62929     0.68067     0.81960     0.97011      1.1258      1.3536      1.6470      1.9151      2.1243    
  2.3153      2.4777      2.5454      2.5193      2.4603      2.3600      2.1560      1.8729      1.6099      1.3895    
  1.2313      1.0040     0.81743     0.72076     0.67148     0.62427     0.62310     0.71573     0.86059      1.0080    
  1.1908      1.4451      1.7207      1.9564      2.1627      2.3504      2.4623      2.4613      2.4002      2.3232    
  2.1843      1.9475      1.6780      1.4463      1.2658      1.0578     0.86177     0.72997     0.66610     0.62354    
 0.59863     0.63722     0.74510     0.88011      1.0353      1.2421      1.4891      1.7239      1.9336      2.1366    
  2.3002      2.3605      2.3212      2.2423      2.1337      1.9540      1.7126      1.4750      1.2714      1.0787    
 0.89551     0.74773     0.65848     0.61129     0.58544     0.59516     0.65847     0.76235     0.89282      1.0621    
  1.2714      1.4854      1.6777      1.8610      2.0363      2.1565      2.1819      2.1306      2.0363      1.8952    
  1.6989      1.4785      1.2547      1.0720     0.90521     0.76385     0.65939     0.59408     0.56236     0.56328    
 0.59974     0.66897     0.76797     0.90316      1.0770      1.2690      1.4492      1.6078      1.7521      1.8749    
  1.9487      1.9542      1.8953      1.7841      1.6295      1.4459      1.2124      1.0471     0.89273     0.76589    
 0.66666     0.58985     0.54148     0.53028     0.55197     0.59637     0.66407     0.76385     0.89800      1.0581    
  1.2287      1.3886      1.5185      1.6139      1.6818      1.7190      1.7060      1.6327      1.5136      1.3703    
  1.1421      1.0077     0.86877     0.75284     0.66796     0.59852     0.54158     0.51395     0.52011     0.54593    
 0.58759     0.65606     0.75210     0.86610     0.99923      1.1520      1.2968      1.3967      1.4504      1.4822    
  1.4925      1.4567      1.3714      1.2618      1.0502     0.95220     0.83914     0.73373     0.65850     0.60397    
 0.55471     0.52077     0.51489     0.52664     0.54680     0.58855     0.65847     0.73762     0.81752     0.91972    
  1.0502      1.1693      1.2398      1.2714      1.2863      1.2747      1.2205      1.1384     0.94868     0.88201    
 0.80204     0.71571     0.64757     0.60258     0.56535     0.53530     0.52598     0.53285     0.54039     0.55730    
 0.60409     0.67013     0.72583     0.77442     0.84614     0.94111      1.0226      1.0698      1.0934      1.0978    
  1.0702      1.0133     0.84976     0.80587     0.75676     0.69822     0.64465     0.60789     0.58011     0.55524    
 0.54408     0.55036     0.55729     0.55823     0.57481     0.62143     0.67681     0.71574     0.74621     0.78907    
 0.84141     0.88558     0.91599     0.93279     0.92692     0.89437     0.76250     0.73561     0.70940     0.67873    
 0.64790     0.62642     0.61215     0.59673     0.58439     0.58547     0.59412     0.59422     0.58798     0.59648    
 0.62854     0.66862     0.69984     0.72160     0.74028     0.75837     0.77672     0.79379     0.80047     0.78824    
 0.69065     0.67817     0.66814     0.65930     0.65166     0.65005     0.65529     0.65979     0.65850     0.65707    
 0.66148     0.66563     0.65848     0.64119     0.62842     0.63251     0.65170     0.67364     0.68704     0.69022    
 0.69064     0.69523     0.70135     0.70055     0.63390     0.63354     0.63658     0.64469     0.65715     0.67450    
 0.69825     0.72578     0.74901     0.76166     0.76593     0.76794     0.76673     0.75280     0.72080     0.68070    
 0.65121     0.64178     0.64472     0.64617     0.64119     0.63513     0.63320     0.63398     0.59259     0.60031    
 0.61402     0.63655     0.66794     0.70514     0.74633     0.79193     0.83894     0.87755     0.89810     0.90108    
 0.89531     0.88457     0.86070     0.81452     0.75142     0.69079     0.64912     0.62700     0.61397     0.60238    
 0.59310     0.58972     0.56875     0.57926     0.59958     0.63278     0.68101     0.74061     0.80514     0.87117    
 0.93761     0.99963      1.0464      1.0671      1.0604      1.0357      1.0033     0.96201     0.90230     0.82235    
 0.73779     0.66962     0.62545     0.59791     0.57896     0.56845     0.75136     0.76575     0.80629     0.87553    
 0.97736      1.1096      1.2629      1.4248      1.5832      1.7263      1.8435      1.9220      1.9469      1.9103    
  1.8234      1.7099      1.5831      1.4394      1.2774      1.1151     0.97736     0.87545     0.80587     0.76448    
 0.76531     0.76612     0.80347     0.87779     0.99100      1.1424      1.3265      1.5330      1.7452      1.9420    
  2.1068      2.2310      2.3042      2.3079      2.2306      2.0866      1.9089      1.7215      1.5294      1.3350    
  1.1514     0.99631     0.87946     0.80265     0.80649     0.78239     0.80576     0.87857     0.99893      1.1620    
  1.3643      1.6018      1.8608      2.1164      2.3419      2.5199      2.6407      2.6933      2.6627      2.5406    
  2.3399      2.0945      1.8402      1.5969      1.3704      1.1667     0.99865     0.87776     0.87801     0.82030    
 0.81562     0.87418     0.99653      1.1689      1.3830      1.6405      1.9336      2.2370      2.5228      2.7675    
  2.9470      3.0419      3.0488      2.9703      2.8015      2.5453      2.2366      1.9264      1.6424      1.3855    
  1.1616     0.98952     0.97736     0.88391     0.84179     0.86733     0.97735      1.1545      1.3756      1.6451    
  1.9661      2.3099      2.6424      2.9493      3.2073      3.3685      3.4067      3.3450      3.2073      2.9814    
  2.6651      2.3076      1.9661      1.6543      1.3698      1.1361      1.0973     0.96659     0.89001     0.86977    
 0.94483      1.1141      1.3358      1.6022      1.9369      2.3207      2.6965      3.0446      3.3717      3.6320    
  3.7476      3.7089      3.5731      3.3646      3.0626      2.6863      2.3043      1.9517      1.6172      1.3164    
  1.2373      1.0574     0.95405     0.89269     0.91406      1.0548      1.2719      1.5233      1.8405      2.2437    
  2.6677      3.0502      3.4088      3.7488      3.9827      4.0295      3.9199      3.7195      3.4288      3.0423    
  2.6250      2.2417      1.8809      1.5277      1.4022      1.1550      1.0200     0.93352     0.89997     0.98754    
  1.1901      1.4329      1.7127      2.0900      2.5427      2.9706      3.3443      3.7075      4.0280      4.1938    
  4.1673      4.0106      3.7541      3.3790      2.9297      2.5055      2.1292      1.7545      1.5831      1.2671    
  1.0807     0.97630     0.90537     0.92496      1.0861      1.3262      1.5831      1.9052      2.3370      2.8012    
  3.2073      3.5712      3.9173      4.1661      4.2342      4.1485      3.9600      3.6468      3.2073      2.7430    
  2.3393      1.9641      1.7494      1.3922      1.1421      1.0079     0.91974     0.88160     0.97083      1.1843    
  1.4368      1.7157      2.0875      2.5428      2.9830      3.3656      3.7190      4.0110      4.1496      4.1221    
  3.9926      3.7662      3.3990      2.9384      2.5036      2.1253      1.8689      1.5100      1.2116      1.0309    
 0.92873     0.86173     0.87779      1.0256      1.2571      1.5142      1.8261      2.2275      2.6630      3.0633    
  3.4294      3.7560      3.9627      3.9933      3.8972      3.7274      3.4521      3.0538      2.6179      2.2289    
  1.9319      1.5936      1.2819      1.0566     0.92708     0.84959     0.82337     0.89675      1.0727      1.3014    
  1.5699      1.9069      2.2970      2.6812      3.0393      3.3785      3.6487      3.7662      3.7248      3.5877    
  3.3756      3.0608      2.6693      2.2821      1.9469      1.6298      1.3327      1.0872     0.92304     0.82828    
 0.78543     0.81121     0.92303      1.1027      1.3299      1.6122      1.9470      2.2930      2.6176      2.9259    
  3.2073      3.3991      3.4489      3.3718      3.2073      2.9620      2.6400      2.2858      1.9201      1.6227    
  1.3482      1.1105     0.92673     0.80442     0.74260     0.74341     0.81013     0.93676      1.1149      1.3460    
  1.6280      1.9353      2.2319      2.5014      2.7433      2.9403      3.0547      3.0604      2.9618      2.7770    
  2.5243      2.2283      1.8488      1.5824      1.3298      1.1127     0.93526     0.79685     0.70864     0.68376    
 0.71947     0.80362     0.93260      1.1105      1.3352      1.5940      1.8662      2.1245      2.3423      2.5080    
  2.6223      2.6762      2.6477      2.5279      2.3372      2.1051      1.7330      1.5138      1.2894      1.0927    
 0.93563     0.80580     0.70442     0.65325     0.65969     0.70903     0.79447     0.92319      1.0917      1.2865    
  1.5050      1.7435      1.9678      2.1338      2.2345      2.2913      2.3020      2.2411      2.1073      1.9311    
  1.5832      1.4179      1.2345      1.0607     0.92304     0.81456     0.72234     0.66038     0.64499     0.66651    
 0.71415     0.79858     0.92303      1.0646      1.2117      1.3839      1.5831      1.7633      1.8806      1.9412    
  1.9661      1.9445      1.8602      1.7309      1.4168      1.2999      1.1658      1.0257     0.90769     0.81907    
 0.74565     0.68906     0.66582     0.67292     0.69428     0.73731     0.82082     0.93133      1.0362      1.1368    
  1.2622      1.4087      1.5339      1.6119      1.6516      1.6561      1.6123      1.5242      1.2518      1.1731    
  1.0860     0.98930     0.90052     0.83320     0.77990     0.73512     0.71130     0.71357     0.72500     0.73818    
 0.77439     0.84742     0.93425      1.0078      1.0750      1.1554      1.2429      1.3156      1.3646      1.3881    
  1.3760      1.3248      1.1027      1.0544      1.0049     0.95167     0.90118     0.86397     0.83760     0.81294    
 0.79420     0.79226     0.80125     0.80440     0.80374     0.82114     0.86612     0.92298     0.97406      1.0178    
  1.0592      1.0983      1.1331      1.1594      1.1663      1.1451     0.97736     0.95459     0.93423     0.91734    
 0.90535     0.90345     0.91156     0.92035     0.92304     0.92436     0.92994     0.93327     0.92304     0.90090    
 0.88331     0.88489     0.90537     0.93252     0.95416     0.96722     0.97735     0.98930     0.99831     0.99483    
 0.87798     0.87621     0.87990     0.89275     0.91513     0.94734     0.98938      1.0361      1.0766      1.1019    
  1.1128      1.1149      1.1073      1.0807      1.0309     0.97084     0.92273     0.89892     0.89277     0.88995    
 0.88425     0.87935     0.87864     0.87941     0.80607     0.81853     0.84164     0.87982     0.93401      1.0005    
  1.0751      1.1553      1.2343      1.2985      1.3354      1.3437      1.3325      1.3060      1.2573      1.1791    
  1.0804     0.98529     0.91417     0.86976     0.84157     0.82071     0.80661     0.80177     0.76401     0.78201    
 0.81775     0.87535     0.95750      1.0595      1.1723      1.2886      1.4027      1.5054      1.5816      1.6175    
  1.6104      1.5703      1.5092      1.4284      1.3214      1.1905      1.0566     0.94555     0.86770     0.81599    
 0.78161     0.76364      1.0038      1.0288      1.1005      1.2199      1.3888      1.6020      1.8457      2.1027    
  2.3542      2.5811      2.7651      2.8869      2.9266      2.8745      2.7438      2.5636      2.3541      2.1182    
  1.8612      1.6078      1.3888      1.2199      1.1000      1.0274      1.0283      1.0292      1.0941      1.2217    
  1.4107      1.6563      1.9486      2.2720      2.6031      2.9120      3.1723      3.3667      3.4773      3.4813    
  3.3662      3.1509      2.8770      2.5782      2.2684      1.9576      1.6658      1.4163      1.2235      1.0933    
  1.1007      1.0595      1.0999      1.2226      1.4218      1.6876      2.0118      2.3852      2.7878      3.1853    
  3.5394      3.8204      4.0084      4.0850      4.0318      3.8424      3.5373      3.1622      2.7660      2.3799    
  2.0181      1.6926      1.4215      1.2217      1.2225      1.1255      1.1206      1.2185      1.4165      1.6948    
  2.0394      2.4474      2.9051      3.3784      3.8267      4.2117      4.4946      4.6444      4.6517      4.5194    
  4.2478      3.8505      3.3778      2.8973      2.4492      2.0421      1.6872      1.4091      1.3888      1.2308    
  1.1659      1.2133      1.3888      1.6690      2.0235      2.4520      2.9532      3.4901      4.0157      4.4999    
  4.9018      5.1562      5.2258      5.1314      4.9018      4.5338      4.0396      3.4876      2.9533      2.4618    
  2.0175      1.6496      1.5890      1.3672      1.2423      1.2209      1.3442      1.6068      1.9584      2.3854    
  2.9084      3.5014      4.0945      4.6518      5.1618      5.5580      5.7444      5.7033      5.4955      5.1541    
  4.6708      4.0837      3.4841      2.9242      2.4014      1.9380      1.8188      1.5210      1.3434      1.2550    
  1.3011      1.5183      1.8555      2.2620      2.7663      3.3853      4.0423      4.6577      5.2308      5.7469    
  6.0955      6.1799      6.0290      5.7158      5.2521      4.6493      3.9971      3.3832      2.8091      2.2666    
  2.0788      1.6880      1.4534      1.3138      1.2782      1.4190      1.7252      2.1115      2.5690      3.1574    
  3.8477      4.5224      5.1328      5.7030      6.1788      6.4263      6.3984      6.1605      5.7525      5.1694    
  4.4791      3.8084      3.1989      2.6131      2.3541      1.8721      1.5624      1.3806      1.2809      1.3262    
  1.5681      1.9347      2.3541      2.8731      3.5343      4.2475      4.9018      5.4935      6.0261      6.3972    
  6.5064      6.3785      6.0714      5.5736      4.9018      4.1858      3.5367      2.9354      2.6054      2.0668    
  1.6735      1.4401      1.2990      1.2586      1.4009      1.7180      2.1137      2.5696      3.1519      3.8448    
  4.5328      5.1532      5.7141      6.1604      6.3797      6.3505      6.1408      5.7639      5.1886      4.4856    
  3.8032      3.1919      2.7919      2.2447      1.7900      1.4925      1.3170      1.2229      1.2631      1.4871    
  1.8382      2.2491      2.7465      3.3629      4.0321      4.6672      5.2498      5.7532      6.0742      6.1421    
  6.0049      5.7229      5.2739      4.6571      3.9843      3.3643      2.8973      2.3724      1.8997      1.5464    
  1.3276      1.2027      1.1749      1.2955      1.5637      1.9206      2.3474      2.8707      3.4696      4.0722    
  4.6417      5.1668      5.5756      5.7652      5.7214      5.5111      5.1637      4.6645      4.0595      3.4539    
  2.9266      2.4315      1.9769      1.5999      1.3363      1.1788      1.1136      1.1606      1.3363      1.6165    
  1.9740      2.4129      2.9266      3.4655      3.9840      4.4723      4.9018      5.1909      5.2733      5.1618    
  4.9018      4.5106      4.0078      3.4577      2.8848      2.4241      2.0015      1.6362      1.3499      1.1554    
  1.0558      1.0565      1.1612      1.3605      1.6409      1.9991      2.4296      2.9010      3.3676      3.8009    
  4.1861      4.4905      4.6625      4.6684      4.5131      4.2219      3.8252      3.3637      2.7705      2.3606    
  1.9739      1.6384      1.3625      1.1492      1.0137     0.97282      1.0249      1.1562      1.3598      1.6361    
  1.9795      2.3729      2.7892      3.1911      3.5397      3.8110      3.9944      4.0730      4.0211      3.8321    
  3.5346      3.1705      2.5879      2.2486      1.9078      1.6057      1.3592      1.1584      1.0073     0.93059    
 0.93732      1.0121      1.1467      1.3462      1.6046      1.9046      2.2396      2.5993      2.9393      3.2037    
  3.3758      3.4704      3.4816      3.3825      3.1758      2.9006      2.3542      2.0938      1.8143      1.5510    
  1.3363      1.1658      1.0279     0.93806     0.91356     0.94447      1.0195      1.1493      1.3363      1.5548    
  1.7901      2.0579      2.3541      2.6224      2.8088      2.9132      2.9532      2.9164      2.7872      2.5883    
  2.0944      1.9068      1.6985      1.4872      1.3072      1.1690      1.0589     0.97841     0.94374     0.95110    
 0.98380      1.0503      1.1710      1.3320      1.4981      1.6679      1.8671      2.0858      2.2730      2.3958    
  2.4590      2.4638      2.3962      2.2629      1.8343      1.7072      1.5679      1.4204      1.2872      1.1854    
  1.1079      1.0480      1.0164      1.0168      1.0307      1.0510      1.1021      1.2004      1.3227      1.4400    
  1.5566      1.6885      1.8245      1.9370      2.0120      2.0448      2.0239      1.9468      1.5947      1.5179    
  1.4373      1.3544      1.2793      1.2252      1.1899      1.1626      1.1446      1.1444      1.1537      1.1552    
  1.1528      1.1726      1.2274      1.3023      1.3782      1.4511      1.5228      1.5899      1.6464      1.6849    
  1.6921      1.6591      1.3888      1.3545      1.3225      1.2967      1.2809      1.2817      1.2987      1.3204    
  1.3363      1.3476      1.3571      1.3569      1.3363      1.3000      1.2689      1.2620      1.2809      1.3128    
  1.3436      1.3678      1.3888      1.4089      1.4211      1.4147      1.2225      1.2227      1.2317      1.2551    
  1.2944      1.3500      1.4205      1.4981      1.5675      1.6153      1.6385      1.6408      1.6212      1.5720    
  1.4926      1.4008      1.3238      1.2772      1.2551      1.2423      1.2312      1.2240      1.2227      1.2235    
  1.1002      1.1237      1.1657      1.2316      1.3222      1.4328      1.5567      1.6875      1.8140      1.9173    
  1.9796      1.9967      1.9766      1.9252      1.8383      1.7126      1.5622      1.4167      1.3012      1.2209    
  1.1656      1.1260      1.1008      1.0923      1.0270      1.0592      1.1229      1.2217      1.3575      1.5233    
  1.7064      1.8949      2.0780      2.2400      2.3597      2.4185      2.4109      2.3478      2.2439      2.1051    
  1.9296      1.7256      1.5201      1.3449      1.2137      1.1210      1.0587      1.0265      1.3514      1.3921    
  1.5091      1.7005      1.9642      2.2908      2.6625      3.0565      3.4463      3.8017      4.0911      4.2824    
  4.3462      4.2691      4.0683      3.7830      3.4463      3.0732      2.6790      2.2970      1.9643      1.7005    
  1.5086      1.3906      1.3915      1.3924      1.4962      1.6985      1.9933      2.3714      2.8184      3.3142    
  3.8269      4.3136      4.7306      5.0426      5.2168      5.2209      5.0419      4.7078      4.2765      3.8006    
  3.3105      2.8280      2.3814      1.9992      1.7004      1.4953      1.5093      1.4448      1.5085      1.6993    
  2.0071      2.4168      2.9163      3.4929      4.1193      4.7472      5.3176      5.7768      6.0828      6.2014    
  6.1076      5.8002      5.3155      4.7228      4.0961      3.4872      2.9230      2.4220      2.0068      1.6984    
  1.7033      1.5537      1.5484      1.6990      1.9994      2.4244      2.9563      3.5902      4.3075      5.0608    
  5.7870      6.4189      6.8874      7.1370      7.1448      6.9140      6.4574      5.8123      5.0600      4.2990    
  3.5921      2.9592      2.4163      1.9915      1.9643      1.7203      1.6253      1.7016      1.9642      2.3847    
  2.9286      3.5949      4.3807      5.2377      6.0968      6.8966      7.5597      7.9859      8.1143      7.9596    
  7.5597      6.9326      6.1220      5.2349      4.3807      3.6055      2.9223      2.3642      2.2771      1.9330    
  1.7451      1.7224      1.9087      2.2960      2.8289      3.4929      4.3107      5.2495      6.2185      7.1502    
  7.9945      8.6426      8.9622      8.9185      8.5760      7.9864      7.1705      6.2071      5.2312      4.3276    
  3.5100      2.8071      2.6339      2.1749      1.8995      1.7762      1.8545      2.1721      2.6730      3.3037    
  4.0964      5.0678      6.1248      7.1564      8.1234      8.9666      9.5307      9.6879      9.4600      8.9335    
  8.1460      7.1477      6.0769      5.0657      4.1419      3.3085      3.0312      2.4384      2.0703      1.8618    
  1.8238      2.0335      2.4779      3.0661      3.7910      4.7178      5.8093      6.9205      7.9636      8.9198    
  9.6873      10.090      10.061      9.6680      8.9725      8.0026      6.8744      5.7675      4.7618      3.8377    
  3.4463      2.7237      2.2450      1.9612      1.8248      1.9034      2.2508      2.7901      3.4463      4.2725    
  5.3124      6.4572      7.5597      8.5739      9.4570      10.059      10.248      10.040      9.5051      8.6590    
  7.5597      6.3915      5.3148      4.3386      3.8275      3.0177      2.4234      2.0574      1.8480      1.8053    
  2.0159      2.4706      3.0673      3.7893      4.7088      5.8029      6.9282      7.9826      8.9299      9.6673    
  10.041      10.010      9.6463      8.9829      8.0203      6.8781      5.7586      4.7513      4.1194      3.2834    
  2.6042      2.1482      1.8768      1.7482      1.8196      2.1425      2.6554      3.2879      4.0711      5.0383    
  6.1080      7.1613      8.1399      8.9715      9.5081      9.6483      9.4344      8.9393      8.1654      7.1506    
  6.0572      5.0400      4.2933      3.4767      2.7683      2.2383      1.9014      1.7155      1.6860      1.8674    
  2.2568      2.7906      3.4501      4.2650      5.2085      6.1879      7.1341      7.9971      8.6612      8.9860    
  8.9394      8.5927      7.9939      7.1583      6.1742      5.1919      4.3462      3.5706      2.8820      2.3209    
  1.9245      1.6858      1.5923      1.6663      1.9245      2.3387      2.8791      3.5508      4.3462      5.2042    
  6.0569      6.8638      7.5597      8.0255      8.1685      7.9945      7.5597      6.9046      6.0821      5.1959    
  4.2801      3.5628      2.9194      2.3737      1.9494      1.6607      1.5128      1.5133      1.6665      1.9607    
  2.3787      2.9167      3.5685      4.2974      5.0436      5.7561      6.3918      6.8867      7.1617      7.1678    
  6.9105      6.4299      5.7821      5.0393      4.0966      3.4642      2.8790      2.3761      1.9665      1.6548    
  1.4585      1.3971      1.4700      1.6621      1.9638      2.3735      2.8846      3.4773      4.1167      4.7504    
  5.3179      5.7703      6.0741      6.1957      6.1023      5.7927      5.3128      4.7286      3.8087      3.2874    
  2.7769      2.3272      1.9592      1.6644      1.4485      1.3388      1.3458      1.4535      1.6522      1.9455    
  2.3258      2.7734      3.2780      3.8210      4.3425      4.7667      5.0579      5.2168      5.2285      5.0649    
  4.7373      4.3017      3.4463      3.0461      2.6300      2.2433      1.9245      1.6715      1.4732      1.3466    
  1.3100      1.3533      1.4645      1.6543      1.9245      2.2471      2.6043      3.0083      3.4463      3.8474    
  4.1416      4.3161      4.3807      4.3192      4.1186      3.8114      3.0479      2.7604      2.4499      2.1427    
  1.8799      1.6754      1.5159      1.4029      1.3525      1.3602      1.4086      1.5071      1.6777      1.9060    
  2.1540      2.4176      2.7184      3.0386      3.3152      3.5042      3.6026      3.6075      3.5044      3.3047    
  2.6505      2.4589      2.2507      2.0366      1.8452      1.6972      1.5863      1.5045      1.4613      1.4584    
  1.4760      1.5076      1.5803      1.7131      1.8827      2.0575      2.2389      2.4389      2.6399      2.8060    
  2.9166      2.9621      2.9290      2.8165      2.2832      2.1717      2.0531      1.9334      1.8271      1.7505    
  1.7019      1.6686      1.6494      1.6498      1.6595      1.6602      1.6582      1.6837      1.7529      1.8516    
  1.9588      2.0678      2.1768      2.2779      2.3608      2.4140      2.4215      2.3741      1.9642      1.9196    
  1.8771      1.8434      1.8248      1.8296      1.8572      1.8936      1.9245      1.9471      1.9610      1.9568    
  1.9245      1.8721      1.8257      1.8086      1.8248      1.8607      1.8996      1.9337      1.9642      1.9914    
  2.0064      1.9975      1.7033      1.7116      1.7338      1.7762      1.8411      1.9288      2.0368      2.1540    
  2.2606      2.3372      2.3762      2.3787      2.3436      2.2655      2.1483      2.0157      1.9009      1.8229    
  1.7763      1.7451      1.7206      1.7049      1.6995      1.7003      1.5088      1.5517      1.6252      1.7336    
  1.8769      2.0484      2.2390      2.4384      2.6298      2.7869      2.8847      2.9141      2.8817      2.7954    
  2.6555      2.4649      2.2447      2.0312      1.8546      1.7223      1.6251      1.5541      1.5094      1.4943    
  1.3901      1.4444      1.5508      1.7106      1.9227      2.1773      2.4580      2.7480      3.0296      3.2784    
  3.4632      3.5566      3.5487      3.4505      3.2825      3.0583      2.7848      2.4783      2.1739      1.9093    
  1.7020      1.5488      1.4439      1.3896      1.8312      1.8921      2.0684      2.3548      2.7462      3.2313    
  3.7897      4.3935      5.0041      5.5719      6.0400      6.3513      6.4572      6.3370      6.0156      5.5518    
  5.0042      4.4114      3.8075      3.2379      2.7463      2.3548      2.0679      1.8905      1.8916      1.8926    
  2.0458      2.3447      2.7814      3.3454      4.0220      4.7872      5.5978      6.3877      7.0807      7.6048    
  7.8951      7.8993      7.6040      7.0564      6.3484      5.5700      4.7834      4.0322      3.3560      2.7877    
  2.3467      2.0448      2.0687      1.9750      2.0678      2.3456      2.7975      3.4091      4.1704      5.0689    
  6.0684      7.0970      8.0571      8.8468      9.3759      9.5741      9.4024      8.8718      8.0550      7.0710    
  6.0435      5.0628      4.1775      3.4146      2.7971      2.3446      2.3578      2.1418      2.1361      2.3531    
  2.7877      3.4170      4.2285      5.2221      6.3757      7.6213      8.8557      9.9545      10.784      11.230    
  11.239      10.812      9.9957      8.8826      7.6202      6.3664      5.2240      4.2315      3.4084      2.7794    
  2.7463      2.3909      2.2585      2.3710      2.7462      3.3595      4.1833      5.2270      6.4910      7.9133    
  9.3870      10.791      11.971      12.747      12.998      12.719      11.971      10.830      9.4139      7.9101    
  6.4910      5.2384      4.1767      3.3376      3.2166      2.7073      2.4386      2.4144      2.6814      3.2370    
  4.0331      5.0687      6.3786      7.9255      9.5877      11.241      12.754      13.923      14.526      14.479    
  13.852      12.745      11.262      9.5756      7.9062      6.3969      5.0872      4.0099      3.7594      3.0711    