unknown system                          
   1.00000000000000     
     3.190316    0.000000    0.000000
    -1.595158    2.762894    0.000000
     0.000000    0.000000   40.879004
   Mo   S 
     1     2
Direct
  0.333333  0.666667  0.090994
  0.666667  0.333333  0.052713
  0.666666  0.333333  0.129275
 
   24   24  320
 0.56206256527E+00 0.57038578108E+00 0.59279201803E+00 0.63156919915E+00 0.69065214063E+00
 0.76912992597E+00 0.86039347931E+00 0.95642663989E+00 0.10501926370E+01 0.11356703309E+01
 0.12071931949E+01 0.12564439993E+01 0.12713918752E+01 0.12453526205E+01 0.11882388930E+01
 0.11201448387E+01 0.10501880001E+01 0.97020846261E+00 0.87412833651E+00 0.77424868760E+00
 0.69062856683E+00 0.63146865898E+00 0.59238221919E+00 0.56919478127E+00 0.56997089707E+00
 0.57076575954E+00 0.59131344203E+00 0.63242899582E+00 0.69685624731E+00 0.78556097736E+00
 0.89595551793E+00 0.10218654771E+01 0.11521056167E+01 0.12721544084E+01 0.13719048629E+01
 0.14484131821E+01 0.14959497302E+01 0.14994051895E+01 0.14479335979E+01 0.13528127321E+01
 0.12408564893E+01 0.11296120005E+01 0.10183765163E+01 0.90394497025E+00 0.79417254808E+00
 0.70194414185E+00 0.63399394382E+00 0.59048157511E+00 0.59300071070E+00 0.57969343693E+00
 0.59228025032E+00 0.63316521707E+00 0.70197197809E+00 0.79620614629E+00 0.91566414785E+00
 0.10601366548E+01 0.12211521726E+01 0.13801851274E+01 0.15181777533E+01 0.16253829745E+01
 0.16995141096E+01 0.17353440880E+01 0.17204257792E+01 0.16449806618E+01 0.15162135866E+01
 0.13593468256E+01 0.12015080044E+01 0.10555764301E+01 0.92161046412E+00 0.80079207920E+00
 0.70169613029E+00 0.63240544542E+00 0.63394680647E+00 0.60202033738E+00 0.59754048951E+00
 0.63025560804E+00 0.70217910596E+00 0.80289331616E+00 0.92795069632E+00 0.10828691652E+01
 0.12642437692E+01 0.14527906723E+01 0.16278743068E+01 0.17751084364E+01 0.18809654719E+01
 0.19360813663E+01 0.19426132489E+01 0.19031282358E+01 0.18073386567E+01 0.16491430560E+01
 0.14523411027E+01 0.12574633045E+01 0.10847203683E+01 0.93039696605E+00 0.79594931662E+00
 0.69551287508E+00 0.69062855240E+00 0.64083716440E+00 0.61416919260E+00 0.62510689587E+00
 0.69063681057E+00 0.79710319936E+00 0.92661872286E+00 0.10873546462E+01 0.12862582000E+01
 0.14998827433E+01 0.17008414665E+01 0.18833095477E+01 0.20362874032E+01 0.21270317254E+01
 0.21411885081E+01 0.21047700902E+01 0.20362845321E+01 0.19138102760E+01 0.17224397680E+01
 0.14977548875E+01 0.12862546859E+01 0.10959990432E+01 0.92099198632E+00 0.77963960946E+00
 0.75740296368E+00 0.68956038127E+00 0.64621013406E+00 0.62699500349E+00 0.66889928378E+00
 0.77331688511E+00 0.90479280881E+00 0.10606575182E+01 0.12675275509E+01 0.15102041635E+01
 0.17381649090E+01 0.19391004820E+01 0.21304703730E+01 0.22843137972E+01 0.23424382559E+01
 0.23057479846E+01 0.22284400829E+01 0.21237564181E+01 0.19562091867E+01 0.17285161290E+01
 0.14946659882E+01 0.12815163875E+01 0.10747867699E+01 0.88632315694E+00 0.83609982570E+00
 0.73852645303E+00 0.68694930074E+00 0.64468114919E+00 0.64900768208E+00 0.73601385440E+00
 0.86880446716E+00 0.10125251184E+01 0.12018132850E+01 0.14591530383E+01 0.17250353080E+01
 0.19445598478E+01 0.21438389209E+01 0.23440109596E+01 0.24813155861E+01 0.24954160667E+01
 0.24217527694E+01 0.23161610116E+01 0.21628348579E+01 0.19369988731E+01 0.16844112484E+01
 0.14571838496E+01 0.12401550117E+01 0.10167880413E+01 0.93495393190E+00 0.78873183510E+00
 0.72368096742E+00 0.67463729409E+00 0.64285547382E+00 0.69297112552E+00 0.82196141484E+00
 0.96389073763E+00 0.11211219680E+01 0.13549911622E+01 0.16467498668E+01 0.19036447712E+01
 0.21045878077E+01 0.23048273681E+01 0.24941633483E+01 0.25872737342E+01 0.25621385665E+01
 0.24775720941E+01 0.23490509540E+01 0.21374360555E+01 0.18647989314E+01 0.16114103557E+01
 0.13922367512E+01 0.11609134487E+01 0.10501880077E+01 0.85082793533E+00 0.75162210293E+00
 0.70198625731E+00 0.65169520423E+00 0.65336669212E+00 0.75684311249E+00 0.90698912118E+00
 0.10501918917E+01 0.12372618300E+01 0.15133210363E+01 0.18069848226E+01 0.20362896921E+01
 0.22266538016E+01 0.24192376761E+01 0.25610515645E+01 0.25916921741E+01 0.25442920624E+01
 0.24597812828E+01 0.22983868567E+01 0.20362845653E+01 0.17517594858E+01 0.15155951034E+01
 0.12931814197E+01 0.11575792450E+01 0.92767081268E+00 0.77945361728E+00 0.71580572913E+00
 0.66546955194E+00 0.62928550085E+00 0.68066750318E+00 0.81960090618E+00 0.97011217204E+00
 0.11257574354E+01 0.13535763663E+01 0.16470280031E+01 0.19151288544E+01 0.21242885722E+01
 0.23153044745E+01 0.24777438726E+01 0.25453849278E+01 0.25193140017E+01 0.24603462700E+01
 0.23600281078E+01 0.21559613328E+01 0.18729012313E+01 0.16099108961E+01 0.13894710385E+01
 0.12313073953E+01 0.10039963331E+01 0.81742843156E+00 0.72076037103E+00 0.67148378513E+00
 0.62427384076E+00 0.62310486216E+00 0.71572605126E+00 0.86058853083E+00 0.10080115807E+01
 0.11908239580E+01 0.14450861507E+01 0.17207490455E+01 0.19564420874E+01 0.21627296332E+01
 0.23503742843E+01 0.24623061793E+01 0.24612734217E+01 0.24002185989E+01 0.23232279584E+01
 0.21842570119E+01 0.19474560206E+01 0.16779758059E+01 0.14463451380E+01 0.12657819671E+01
 0.10577939438E+01 0.86177480354E+00 0.72996809722E+00 0.66609760963E+00 0.62353673922E+00
 0.59863351291E+00 0.63722415414E+00 0.74509838420E+00 0.88011264018E+00 0.10353272726E+01
 0.12421178266E+01 0.14891039446E+01 0.17239272866E+01 0.19336481680E+01 0.21365644711E+01
 0.23001841871E+01 0.23605112381E+01 0.23212170590E+01 0.22423096047E+01 0.21337042663E+01
 0.19540325408E+01 0.17125501743E+01 0.14750228070E+01 0.12713919170E+01 0.10787144626E+01
 0.89551350890E+00 0.74772996100E+00 0.65848223966E+00 0.61128786746E+00 0.58544080002E+00
 0.59515931163E+00 0.65847062696E+00 0.76235334026E+00 0.89282288060E+00 0.10620989754E+01
 0.12713897140E+01 0.14853510166E+01 0.16776805426E+01 0.18610180732E+01 0.20362897325E+01
 0.21565187655E+01 0.21818674411E+01 0.21306397330E+01 0.20362874768E+01 0.18951637607E+01
 0.16988956307E+01 0.14784972436E+01 0.12546825435E+01 0.10719674313E+01 0.90520746264E+00
 0.76384933793E+00 0.65939157248E+00 0.59408227728E+00 0.56235987419E+00 0.56328471001E+00
 0.59974265737E+00 0.66896860662E+00 0.76797196380E+00 0.90316355079E+00 0.10770138982E+01
 0.12690378575E+01 0.14492122344E+01 0.16078321084E+01 0.17521223298E+01 0.18748809754E+01
 0.19486859532E+01 0.19541847152E+01 0.18953049320E+01 0.17840773611E+01 0.16295091031E+01
 0.14458755932E+01 0.12123677800E+01 0.10471030160E+01 0.89272923149E+00 0.76588904830E+00
 0.66665624485E+00 0.58985112695E+00 0.54148469431E+00 0.53028407925E+00 0.55197161346E+00
 0.59637362500E+00 0.66407164381E+00 0.76384586450E+00 0.89799746842E+00 0.10581212319E+01
 0.12287178967E+01 0.13886461588E+01 0.15184956241E+01 0.16138599837E+01 0.16818322658E+01
 0.17189545984E+01 0.17060160528E+01 0.16327171144E+01 0.15136217167E+01 0.13703163854E+01
 0.11420910298E+01 0.10076832548E+01 0.86876928012E+00 0.75283783109E+00 0.66795907375E+00
 0.59852024705E+00 0.54157654101E+00 0.51395191451E+00 0.52011188055E+00 0.54593261735E+00
 0.58758832439E+00 0.65605719723E+00 0.75209762305E+00 0.86610403142E+00 0.99922631718E+00
 0.11520419504E+01 0.12967835643E+01 0.13966664195E+01 0.14503677927E+01 0.14822085870E+01
 0.14925466305E+01 0.14567332288E+01 0.13713998640E+01 0.12617806421E+01 0.10501926547E+01
 0.95219588464E+00 0.83914087080E+00 0.73372898186E+00 0.65850169069E+00 0.60396765907E+00
 0.55471206274E+00 0.52077161269E+00 0.51489065536E+00 0.52664464766E+00 0.54679705005E+00
 0.58855068937E+00 0.65847060674E+00 0.73762250407E+00 0.81752004779E+00 0.91972433812E+00
 0.10501919019E+01 0.11693299628E+01 0.12398418157E+01 0.12714198510E+01 0.12862582380E+01
 0.12747190913E+01 0.12205337039E+01 0.11383760757E+01 0.94868250699E+00 0.88201034128E+00
 0.80203621940E+00 0.71570741398E+00 0.64757135143E+00 0.60257665166E+00 0.56534837963E+00
 0.53530294763E+00 0.52598091012E+00 0.53284597147E+00 0.54039284697E+00 0.55730205998E+00
 0.60409156238E+00 0.67012682969E+00 0.72583479887E+00 0.77442235454E+00 0.84614394631E+00
 0.94110957327E+00 0.10226338733E+01 0.10697590815E+01 0.10933673389E+01 0.10978207167E+01
 0.10702454342E+01 0.10133452268E+01 0.84976027188E+00 0.80587246236E+00 0.75676432714E+00
 0.69821770367E+00 0.64465387737E+00 0.60788658220E+00 0.58010678585E+00 0.55523961508E+00
 0.54407884090E+00 0.55036183049E+00 0.55729247140E+00 0.55823377722E+00 0.57480760081E+00
 0.62142745837E+00 0.67680657463E+00 0.71573729346E+00 0.74620990628E+00 0.78907150728E+00
 0.84140918487E+00 0.88558248145E+00 0.91598550301E+00 0.93279347264E+00 0.92691587134E+00
 0.89436703128E+00 0.76250117475E+00 0.73561496108E+00 0.70940185904E+00 0.67872905684E+00
 0.64789741557E+00 0.62642154666E+00 0.61215072397E+00 0.59673202660E+00 0.58438544775E+00
 0.58547080190E+00 0.59411525678E+00 0.59422029874E+00 0.58798270498E+00 0.59647868409E+00
 0.62853800627E+00 0.66861944495E+00 0.69983897788E+00 0.72159693037E+00 0.74027802804E+00
 0.75837072557E+00 0.77671762641E+00 0.79378641230E+00 0.80047030015E+00 0.78823663248E+00
 0.69065214190E+00 0.67816552242E+00 0.66813542547E+00 0.65929971479E+00 0.65166063729E+00
 0.65005289619E+00 0.65528709598E+00 0.65978876901E+00 0.65850167792E+00 0.65706510901E+00
 0.66148167655E+00 0.66562631845E+00 0.65848220671E+00 0.64119499830E+00 0.62841529779E+00
 0.63250843212E+00 0.65169520094E+00 0.67363673499E+00 0.68703620326E+00 0.69021829008E+00
 0.69063682626E+00 0.69522768718E+00 0.70135349635E+00 0.70055341388E+00 0.63389768478E+00
 0.63354460153E+00 0.63658232605E+00 0.64468995034E+00 0.65715491863E+00 0.67450103544E+00
 0.69825383123E+00 0.72578004475E+00 0.74901089993E+00 0.76165923975E+00 0.76592517683E+00
 0.76793931750E+00 0.76673483301E+00 0.75279812638E+00 0.72079648141E+00 0.68069980829E+00
 0.65121370398E+00 0.64178348254E+00 0.64471726451E+00 0.64616919339E+00 0.64119220460E+00
 0.63513450703E+00 0.63320135344E+00 0.63398137147E+00 0.59259219615E+00 0.60030879628E+00
 0.61402264167E+00 0.63654619818E+00 0.66793559444E+00 0.70513770353E+00 0.74633092539E+00
 0.79192745412E+00 0.83894103553E+00 0.87755455397E+00 0.89810360450E+00 0.90108136340E+00
 0.89531369657E+00 0.88456873536E+00 0.86069674239E+00 0.81452340700E+00 0.75142228425E+00
 0.69079104606E+00 0.64912061596E+00 0.62699980441E+00 0.61396935762E+00 0.60238324899E+00
 0.59309856883E+00 0.58972495199E+00 0.56875326779E+00 0.57926358840E+00 0.59957670057E+00
 0.63277637945E+00 0.68100628073E+00 0.74061119199E+00 0.80514035210E+00 0.87116947152E+00
 0.93760991057E+00 0.99963003814E+00 0.10463708908E+01 0.10671092054E+01 0.10604055363E+01
 0.10357321182E+01 0.10032642459E+01 0.96200851179E+00 0.90229645905E+00 0.82235387067E+00
 0.73779437489E+00 0.66961797737E+00 0.62544782939E+00 0.59790966351E+00 0.57896133797E+00
 0.56844516955E+00 0.75135817794E+00 0.76575419551E+00 0.80629228111E+00 0.87552663533E+00
 0.97736279376E+00 0.11096361982E+01 0.12628710700E+01 0.14248014595E+01 0.15831688096E+01
 0.17263491041E+01 0.18434839465E+01 0.19220281811E+01 0.19469483389E+01 0.19103498735E+01
 0.18234488031E+01 0.17098742366E+01 0.15831233297E+01 0.14393997886E+01 0.12774387165E+01
 0.11150703709E+01 0.97735574280E+00 0.87544580181E+00 0.80586611180E+00 0.76448227665E+00
 0.76530810211E+00 0.76612137902E+00 0.80347066777E+00 0.87778593951E+00 0.99100211476E+00
 0.11424103505E+01 0.13265367782E+01 0.15330140144E+01 0.17451519650E+01 0.19419548491E+01
 0.21067976717E+01 0.22310282392E+01 0.23042154110E+01 0.23079000541E+01 0.22305698601E+01
 0.20866388818E+01 0.19089273275E+01 0.17215088502E+01 0.15294436130E+01 0.13349674093E+01
 0.11514027893E+01 0.99630908478E+00 0.87946268874E+00 0.80264993729E+00 0.80649018112E+00
 0.78239194544E+00 0.80576185145E+00 0.87856591197E+00 0.99893273210E+00 0.11619507837E+01
 0.13642885809E+01 0.16017909661E+01 0.18608415437E+01 0.21164090072E+01 0.23419333319E+01
 0.25198726063E+01 0.26406578251E+01 0.26933349496E+01 0.26627169595E+01 0.25405592644E+01
 0.23399249723E+01 0.20945353673E+01 0.18401758661E+01 0.15969071789E+01 0.13704267817E+01
 0.11667224623E+01 0.99865302279E+00 0.87776320543E+00 0.87801471122E+00 0.82030009388E+00
 0.81561812175E+00 0.87417909946E+00 0.99652575401E+00 0.11688956892E+01 0.13829818556E+01
 0.16405227358E+01 0.19336063639E+01 0.22370426985E+01 0.25228423022E+01 0.27675322486E+01
 0.29469515603E+01 0.30418648727E+01 0.30487504154E+01 0.29703226406E+01 0.28015382482E+01
 0.25453032788E+01 0.22365677845E+01 0.19263854819E+01 0.16423862376E+01 0.13855473819E+01
 0.11616282433E+01 0.98951537661E+00 0.97735572837E+00 0.88390593449E+00 0.84178798634E+00
 0.86733445251E+00 0.97735093391E+00 0.11544557730E+01 0.13756377586E+01 0.16450946043E+01
 0.19660784564E+01 0.23098757604E+01 0.26423755040E+01 0.29492720383E+01 0.32072859039E+01
 0.33684948293E+01 0.34067198004E+01 0.33450487563E+01 0.32072811445E+01 0.29813683899E+01
 0.26650559034E+01 0.23075726306E+01 0.19660856149E+01 0.16542840437E+01 0.13698027261E+01
 0.11361102479E+01 0.10973403342E+01 0.96659221802E+00 0.89001343302E+00 0.86976856718E+00
 0.94483210016E+00 0.11141116394E+01 0.13358251578E+01 0.16021765953E+01 0.19369182311E+01
 0.23206781051E+01 0.26964551547E+01 0.30445698637E+01 0.33716622597E+01 0.36319866057E+01
 0.37476310790E+01 0.37089422855E+01 0.35730599068E+01 0.33645503807E+01 0.30625637741E+01
 0.26862504055E+01 0.23043093117E+01 0.19517350286E+01 0.16171625260E+01 0.13164115736E+01
 0.12373404691E+01 0.10573640008E+01 0.95404848039E+00 0.89269145932E+00 0.91406203273E+00
 0.10547700342E+01 0.12719108636E+01 0.15233238296E+01 0.18404868578E+01 0.22436925556E+01
 0.26677231126E+01 0.30502313813E+01 0.34087681146E+01 0.37488372746E+01 0.39827211355E+01
 0.40295488801E+01 0.39199117493E+01 0.37194689513E+01 0.34288143104E+01 0.30423084532E+01
 0.26249576472E+01 0.22416619879E+01 0.18808981878E+01 0.15277441531E+01 0.14021966106E+01
 0.11549915176E+01 0.10199684000E+01 0.93352113268E+00 0.89997018794E+00 0.98753798002E+00
 0.11900840121E+01 0.14328668995E+01 0.17126683144E+01 0.20899568884E+01 0.25427217863E+01
 0.29705994024E+01 0.33443245073E+01 0.37075021055E+01 0.40280119606E+01 0.41937701739E+01
 0.41672926347E+01 0.40105595120E+01 0.37541468464E+01 0.33789729635E+01 0.29296985049E+01
 0.25055311692E+01 0.21292132455E+01 0.17544872663E+01 0.15831233373E+01 0.12670750955E+01
 0.10806634532E+01 0.97629503549E+00 0.90536677224E+00 0.92496346639E+00 0.10860732970E+01
 0.13262267545E+01 0.15831290467E+01 0.19052074897E+01 0.23369545139E+01 0.28012066717E+01
 0.32072921010E+01 0.35711715280E+01 0.39172572813E+01 0.41661449586E+01 0.42341957437E+01
 0.41484786671E+01 0.39600099993E+01 0.36468071040E+01 0.32072811777E+01 0.27429522048E+01
 0.23393009112E+01 0.19641186589E+01 0.17493750621E+01 0.13922205216E+01 0.11421202707E+01
 0.10078917682E+01 0.91974053985E+00 0.88160244306E+00 0.97082815195E+00 0.11843331211E+01
 0.14367914681E+01 0.17157168420E+01 0.20874992764E+01 0.25428163846E+01 0.29830215914E+01
 0.33656227868E+01 0.37190242512E+01 0.40109536485E+01 0.41496286303E+01 0.41221167640E+01
 0.39925733587E+01 0.37661731405E+01 0.33990163112E+01 0.29384413678E+01 0.25035837740E+01
 0.21253138978E+01 0.18688677268E+01 0.15099860305E+01 0.12116153844E+01 0.10308744777E+01
 0.92872857402E+00 0.86172542921E+00 0.87779013577E+00 0.10256463116E+01 0.12571372806E+01
 0.15141559620E+01 0.18261039287E+01 0.22275156611E+01 0.26630424867E+01 0.30633402407E+01
 0.34294422311E+01 0.37559997855E+01 0.39626762059E+01 0.39933340812E+01 0.38972039903E+01
 0.37273757742E+01 0.34521387255E+01 0.30538446436E+01 0.26179221427E+01 0.22288704153E+01
 0.19318788783E+01 0.15936119574E+01 0.12819351680E+01 0.10565544366E+01 0.92708483153E+00
 0.84959457527E+00 0.82336836729E+00 0.89675261637E+00 0.10726809148E+01 0.13014001023E+01
 0.15699342959E+01 0.19068719027E+01 0.22969524728E+01 0.26812471597E+01 0.30392859685E+01
 0.33785440574E+01 0.36487176825E+01 0.37662342811E+01 0.37247830210E+01 0.35876770529E+01
 0.33755571353E+01 0.30608249435E+01 0.26692806831E+01 0.22821463338E+01 0.19469483808E+01
 0.16297725475E+01 0.13326848704E+01 0.10872203642E+01 0.92303563713E+00 0.82828098247E+00
 0.78543281590E+00 0.81120708386E+00 0.92303042392E+00 0.11027397742E+01 0.13299114681E+01
 0.16122453214E+01 0.19469572804E+01 0.22930352820E+01 0.26176235623E+01 0.29259089955E+01
 0.32072921415E+01 0.33991395079E+01 0.34488663714E+01 0.33717805367E+01 0.32072859774E+01
 0.29619944827E+01 0.26400337683E+01 0.22857778191E+01 0.19201335721E+01 0.16227004051E+01
 0.13481671598E+01 0.11105379500E+01 0.92672617694E+00 0.80441697647E+00 0.74259850978E+00
 0.74341391126E+00 0.81012650709E+00 0.93675598745E+00 0.11149278537E+01 0.13459675479E+01
 0.16279624864E+01 0.19353461344E+01 0.22319355927E+01 0.25014209174E+01 0.27432949149E+01
 0.29403415017E+01 0.30546513345E+01 0.30604052563E+01 0.29618441624E+01 0.27770464777E+01
 0.25242925827E+01 0.22283077874E+01 0.18488037148E+01 0.15823777156E+01 0.13298276499E+01
 0.11126882118E+01 0.93525667486E+00 0.79684878263E+00 0.70863590148E+00 0.68375681208E+00
 0.71946675311E+00 0.80361605354E+00 0.93260000875E+00 0.11105079066E+01 0.13352312391E+01
 0.15939886081E+01 0.18662031056E+01 0.21244747935E+01 0.23422742850E+01 0.25080439504E+01
 0.26223051506E+01 0.26761998368E+01 0.26476952734E+01 0.25279365662E+01 0.23372376899E+01
 0.21050982093E+01 0.17329684281E+01 0.15137904991E+01 0.12894014882E+01 0.10926683573E+01
 0.93563244701E+00 0.80580496579E+00 0.70442093490E+00 0.65324923763E+00 0.65969284381E+00
 0.70902678567E+00 0.79447143328E+00 0.92319141054E+00 0.10917472865E+01 0.12864904604E+01
 0.15050113788E+01 0.17435477620E+01 0.19678439598E+01 0.21337794181E+01 0.22345479903E+01
 0.22912782016E+01 0.23020283795E+01 0.22410931182E+01 0.21072644242E+01 0.19311107782E+01
 0.15831688274E+01 0.14179245498E+01 0.12345231194E+01 0.10606790417E+01 0.92304432211E+00
 0.81456153183E+00 0.72234120716E+00 0.66038370534E+00 0.64498610128E+00 0.66651361401E+00
 0.71414700649E+00 0.79858106419E+00 0.92303040370E+00 0.10645920046E+01 0.12117183762E+01
 0.13838505868E+01 0.15831290569E+01 0.17633115847E+01 0.18805851251E+01 0.19412082157E+01
 0.19660784943E+01 0.19444775523E+01 0.18602174972E+01 0.17308860862E+01 0.14168003004E+01
 0.12998763357E+01 0.11658381972E+01 0.10256630931E+01 0.90769279254E+00 0.81907179685E+00
 0.74564913583E+00 0.68905831369E+00 0.66582260473E+00 0.67292033503E+00 0.69428330059E+00
 0.73730738830E+00 0.82081770395E+00 0.93133336561E+00 0.10361727800E+01 0.11368311241E+01
 0.12622084427E+01 0.14087155032E+01 0.15338503053E+01 0.16119054452E+01 0.16515601639E+01
 0.16561434646E+01 0.16123174663E+01 0.15241870282E+01 0.12518292622E+01 0.11731053990E+01
 0.10859588467E+01 0.98930214770E+00 0.90052191723E+00 0.83319882729E+00 0.77990372006E+00
 0.73512265049E+00 0.71129938492E+00 0.71356554404E+00 0.72499746217E+00 0.73817856496E+00
 0.77439101630E+00 0.84742266565E+00 0.93425087003E+00 0.10078036668E+01 0.10750314904E+01
 0.11554061518E+01 0.12428544451E+01 0.13155698232E+01 0.13645959383E+01 0.13880760884E+01
 0.13759544826E+01 0.13248373066E+01 0.11027119620E+01 0.10543565510E+01 0.10048533407E+01
 0.95166745375E+00 0.90118072312E+00 0.86396951012E+00 0.83759775952E+00 0.81294424146E+00
 0.79419720729E+00 0.79226141052E+00 0.80124770291E+00 0.80439594054E+00 0.80374493940E+00
 0.82114137679E+00 0.86612438518E+00 0.92297690224E+00 0.97405637785E+00 0.10178169472E+01
 0.10591689983E+01 0.10982552630E+01 0.11330648219E+01 0.11594025384E+01 0.11663497280E+01
 0.11451098111E+01 0.97736279503E+00 0.95458888950E+00 0.93423381788E+00 0.91733529142E+00
 0.90534772982E+00 0.90345171520E+00 0.91156373622E+00 0.92034720990E+00 0.92304430934E+00
 0.92435988362E+00 0.92993692336E+00 0.93327404974E+00 0.92303560418E+00 0.90090258831E+00
 0.88330966526E+00 0.88489297440E+00 0.90536676896E+00 0.93252012287E+00 0.95416029051E+00
 0.96721539275E+00 0.97735094960E+00 0.98930359976E+00 0.99830867254E+00 0.99482954523E+00
 0.87797765175E+00 0.87621261496E+00 0.87989900636E+00 0.89274533112E+00 0.91513305249E+00
 0.94734280567E+00 0.98937643903E+00 0.10361152809E+01 0.10765701187E+01 0.11018872494E+01
 0.11127625041E+01 0.11148836137E+01 0.11072831625E+01 0.10806829825E+01 0.10309487518E+01
 0.97084195894E+00 0.92272890223E+00 0.89891753215E+00 0.89276573842E+00 0.88994960060E+00
 0.88425218516E+00 0.87934761872E+00 0.87864021213E+00 0.87941113630E+00 0.80606961380E+00
 0.81853350471E+00 0.84163730711E+00 0.87982471471E+00 0.93401114142E+00 0.10004543947E+01
 0.10751396900E+01 0.11553117111E+01 0.12343004387E+01 0.12985460817E+01 0.13353700516E+01
 0.13437472127E+01 0.13324622126E+01 0.13059894527E+01 0.12572569620E+01 0.11790957850E+01
 0.10804407891E+01 0.98529052591E+00 0.91417290444E+00 0.86975809608E+00 0.84156530593E+00
 0.82071233771E+00 0.80660859321E+00 0.80177119281E+00 0.76401260183E+00 0.78200571500E+00
 0.81774979482E+00 0.87535461493E+00 0.95750054096E+00 0.10595391865E+01 0.11723216745E+01
 0.12885661310E+01 0.14027428672E+01 0.15054295769E+01 0.15815939762E+01 0.16174967172E+01
 0.16104191452E+01 0.15703413931E+01 0.15092023291E+01 0.14284123311E+01 0.13213506495E+01
 0.11904531200E+01 0.10565803085E+01 0.94555319267E+00 0.86769762595E+00 0.81598957770E+00
 0.78160823231E+00 0.76363818995E+00 0.10037960171E+01 0.10288232289E+01 0.11004695710E+01
 0.12198767033E+01 0.13888141643E+01 0.16019795701E+01 0.18457447051E+01 0.21026879855E+01
 0.23541713121E+01 0.25811219470E+01 0.27650846899E+01 0.28868562787E+01 0.29265764064E+01
 0.28744685031E+01 0.27437867947E+01 0.25635845052E+01 0.23541298601E+01 0.21182436007E+01
 0.18612462639E+01 0.16077570020E+01 0.13888459100E+01 0.12198539736E+01 0.11000350877E+01
 0.10274474842E+01 0.10283379290E+01 0.10291812861E+01 0.10941331285E+01 0.12217348627E+01
 0.14107142923E+01 0.16563309076E+01 0.19486252785E+01 0.22720472640E+01 0.26031040823E+01
 0.29119827163E+01 0.31723474260E+01 0.33666516219E+01 0.34773323381E+01 0.34812504749E+01
 0.33661644299E+01 0.31509451742E+01 0.28769928095E+01 0.25781730028E+01 0.22684065954E+01
 0.19575894524E+01 0.16657955533E+01 0.14162968211E+01 0.12235387101E+01 0.10933089889E+01
 0.11006774008E+01 0.10595093025E+01 0.10999237936E+01 0.12225700817E+01 0.14217734055E+01
 0.16875912635E+01 0.20117520917E+01 0.23851804213E+01 0.27878104104E+01 0.31852999029E+01
 0.35393823350E+01 0.38204128995E+01 0.40083984270E+01 0.40850071217E+01 0.40317728192E+01
 0.38423537164E+01 0.35373244769E+01 0.31622228165E+01 0.27659555016E+01 0.23799289151E+01
 0.20181203043E+01 0.16925628540E+01 0.14214639981E+01 0.12217156690E+01 0.12225327448E+01
 0.11255352313E+01 0.11205909570E+01 0.12184877352E+01 0.14164939611E+01 0.16948498926E+01
 0.20394422150E+01 0.24473754046E+01 0.29050962375E+01 0.33783924112E+01 0.38266786064E+01
 0.42117043876E+01 0.44945649479E+01 0.46443884840E+01 0.46517175553E+01 0.45194033315E+01
 0.42477989834E+01 0.38504816940E+01 0.33778171384E+01 0.28973221385E+01 0.24492411650E+01
 0.20421228812E+01 0.16871705960E+01 0.14090815163E+01 0.13888458956E+01 0.12308296897E+01
 0.11658661587E+01 0.12132865165E+01 0.13888292112E+01 0.16689832819E+01 0.20235427058E+01
 0.24520131569E+01 0.29532266558E+01 0.34900997405E+01 0.40156666361E+01 0.44999130148E+01
 0.49018262539E+01 0.51562426389E+01 0.52257627916E+01 0.51314406734E+01 0.49018302473E+01
 0.45338470084E+01 0.40395761405E+01 0.34875776907E+01 0.29532502119E+01 0.24618493493E+01
 0.20174780049E+01 0.16496181525E+01 0.15890153973E+01 0.13671674360E+01 0.12423479286E+01
 0.12209493091E+01 0.13441951315E+01 0.16067829169E+01 0.19584217880E+01 0.23853756827E+01
 0.29083734668E+01 0.35014008416E+01 0.40944742550E+01 0.46517538687E+01 0.51617679315E+01
 0.55580425455E+01 0.57443569407E+01 0.57033200009E+01 0.54955073557E+01 0.51541494223E+01
 0.46708002793E+01 0.40836986033E+01 0.34841230438E+01 0.29241694694E+01 0.24013840074E+01
 0.19379574292E+01 0.18187828040E+01 0.15209699553E+01 0.13434495560E+01 0.12550122057E+01
 0.13011182501E+01 0.15182777575E+01 0.18554907095E+01 0.22619936845E+01 0.27662871151E+01
 0.33852990055E+01 0.40423091526E+01 0.46576735584E+01 0.52308376846E+01 0.57468923083E+01
 0.60954835810E+01 0.61799333121E+01 0.60289544393E+01 0.57157764652E+01 0.52520791806E+01
 0.46493452132E+01 0.39971126719E+01 0.33832093808E+01 0.28090612795E+01 0.22665835777E+01
 0.20788142208E+01 0.16879924623E+01 0.14534145630E+01 0.13138488489E+01 0.12782426171E+01
 0.14189559581E+01 0.17251934401E+01 0.21115047226E+01 0.25689817117E+01 0.31574124531E+01
 0.38477113658E+01 0.45224458823E+01 0.51327533689E+01 0.57030302681E+01 0.61787675522E+01
 0.64263321337E+01 0.63983899310E+01 0.61604581365E+01 0.57524923852E+01 0.51694102847E+01
 0.44791306814E+01 0.38083735206E+01 0.31989387196E+01 0.26130658860E+01 0.23541298677E+01
 0.18721499645E+01 0.15624393015E+01 0.13805759703E+01 0.12808619423E+01 0.13261650345E+01
 0.15680658869E+01 0.19346960617E+01 0.23541312204E+01 0.28731423943E+01 0.35342820795E+01
 0.42474988375E+01 0.49018426876E+01 0.54934973486E+01 0.60261420747E+01 0.63971761567E+01
 0.65063672389E+01 0.63784766580E+01 0.60714179017E+01 0.55735916282E+01 0.49018302805E+01
 0.41857775708E+01 0.35366821721E+01 0.29354450289E+01 0.26054438537E+01 0.20668097403E+01
 0.16734601851E+01 0.14400559631E+01 0.12989605474E+01 0.12586426729E+01 0.14008761308E+01
 0.17180365443E+01 0.21137488532E+01 0.25696469263E+01 0.31519078263E+01 0.38448303305E+01
 0.45328368675E+01 0.51531755599E+01 0.57140584093E+01 0.61604149510E+01 0.63796928441E+01
 0.63504703531E+01 0.61407874448E+01 0.57639209469E+01 0.51885869913E+01 0.44856497518E+01
 0.38032078801E+01 0.31919140937E+01 0.27918876681E+01 0.22447451839E+01 0.17899706345E+01
 0.14925313063E+01 0.13170033555E+01 0.12228777514E+01 0.12631477364E+01 0.14870882270E+01
 0.18381904358E+01 0.22490815444E+01 0.27464976946E+01 0.33628525230E+01 0.40321023927E+01
 0.46671904365E+01 0.52498359474E+01 0.57532042896E+01 0.60742429489E+01 0.61420516479E+01
 0.60049192736E+01 0.57229018905E+01 0.52738636663E+01 0.46571098224E+01 0.39843142965E+01
 0.33643414273E+01 0.28972545933E+01 0.23724004382E+01 0.18997425670E+01 0.15464006547E+01
 0.13276158747E+01 0.12026609679E+01 0.11748791377E+01 0.12955489468E+01 0.15636673797E+01
 0.19205536101E+01 0.23473699844E+01 0.28707031863E+01 0.34695819779E+01 0.40722235407E+01
 0.46416909018E+01 0.51668219139E+01 0.55756260957E+01 0.57652457309E+01 0.57213927922E+01
 0.55110879849E+01 0.51637417901E+01 0.46644957783E+01 0.40595075926E+01 0.34539279344E+01
 0.29265764482E+01 0.24315060876E+01 0.19768534516E+01 0.15998861316E+01 0.13362936799E+01
 0.11787908263E+01 0.11136233710E+01 0.11606022499E+01 0.13362905272E+01 0.16164672341E+01
 0.19740118768E+01 0.24129308774E+01 0.29266001313E+01 0.34654924287E+01 0.39840015188E+01
 0.44722810216E+01 0.49018427280E+01 0.51908792984E+01 0.52733011537E+01 0.51618130496E+01
 0.49018263275E+01 0.45105827355E+01 0.40077561265E+01 0.34577453998E+01 0.28847908619E+01
 0.24240862440E+01 0.20014842232E+01 0.16361586213E+01 0.13499420442E+01 0.11553949627E+01
 0.10558201406E+01 0.10565067627E+01 0.11611695760E+01 0.13605158986E+01 0.16408517892E+01
 0.19990616963E+01 0.24295619616E+01 0.29009816654E+01 0.33676314395E+01 0.38009055325E+01
 0.41860907656E+01 0.44905089417E+01 0.46624524965E+01 0.46684300216E+01 0.45131345712E+01
 0.42218756405E+01 0.38251918608E+01 0.33636957429E+01 0.27705289647E+01 0.23605687753E+01
 0.19739350683E+01 0.16384330841E+01 0.13624978942E+01 0.11491573382E+01 0.10137150948E+01
 0.97281976392E+00 0.10249010206E+01 0.11561920537E+01 0.13597694504E+01 0.16360728572E+01
 0.19794561544E+01 0.23728695590E+01 0.27891543146E+01 0.31910536892E+01 0.35397263571E+01
 0.38109955052E+01 0.39944014716E+01 0.40730191918E+01 0.40211109121E+01 0.38320709094E+01
 0.35345804301E+01 0.31705244059E+01 0.25879325980E+01 0.22486428499E+01 0.19077648917E+01
 0.16057177472E+01 0.13592380907E+01 0.11584435772E+01 0.10072854950E+01 0.93059452650E+00
 0.93732450872E+00 0.10121297024E+01 0.11466679292E+01 0.13462128326E+01 0.16045813465E+01
 0.19045782099E+01 0.22395574570E+01 0.25992686880E+01 0.29392956988E+01 0.32036525119E+01
 0.33757749360E+01 0.34704216887E+01 0.34816234467E+01 0.33825242962E+01 0.31757758157E+01
 0.29006355835E+01 0.23541713299E+01 0.20937806260E+01 0.18142548406E+01 0.15509517990E+01
 0.13362788067E+01 0.11658390517E+01 0.10279362657E+01 0.93806124461E+00 0.91355506021E+00
 0.94446568963E+00 0.10194567674E+01 0.11492832031E+01 0.13362905070E+01 0.15548331218E+01
 0.17900895817E+01 0.20579377111E+01 0.23541312306E+01 0.26223629218E+01 0.28087505949E+01
 0.29131632818E+01 0.29532266937E+01 0.29163693019E+01 0.27871681201E+01 0.25882618463E+01
 0.20944186669E+01 0.19067582115E+01 0.16984987039E+01 0.14871932147E+01 0.13072144161E+01
 0.11690048168E+01 0.10589334427E+01 0.97840930283E+00 0.94374372229E+00 0.95110146475E+00
 0.98380258905E+00 0.10503028881E+01 0.11710294375E+01 0.13320312952E+01 0.14980710320E+01
 0.16679078647E+01 0.18670840831E+01 0.20857716381E+01 0.22729764968E+01 0.23958479412E+01
 0.24590307970E+01 0.24637505090E+01 0.23961632582E+01 0.22628874988E+01 0.18342519420E+01
 0.17072343276E+01 0.15679295028E+01 0.14203986822E+01 0.12872188643E+01 0.11853763421E+01
 0.11078942930E+01 0.10479506208E+01 0.10164434883E+01 0.10168096084E+01 0.10306521174E+01
 0.10510412108E+01 0.11021306161E+01 0.12003786985E+01 0.13227413755E+01 0.14400219916E+01
 0.15565731251E+01 0.16884775550E+01 0.18245200339E+01 0.19369667081E+01 0.20120499303E+01
 0.20448344868E+01 0.20238871924E+01 0.19468022492E+01 0.15947143068E+01 0.15178854790E+01
 0.14373287097E+01 0.13544126571E+01 0.12792843890E+01 0.12251686919E+01 0.11899281242E+01
 0.11625737747E+01 0.11446219623E+01 0.11443676678E+01 0.11537091084E+01 0.11551677918E+01
 0.11528290292E+01 0.11726096570E+01 0.12274295573E+01 0.13023403279E+01 0.13782424262E+01
 0.14511201001E+01 0.15228295715E+01 0.15898796452E+01 0.16464310636E+01 0.16849058528E+01