   3   3   1   0
  0.1201094E+03  0.3190316E-09  0.3190316E-09  0.4087900E-08  0.5000000E-15
  1.000000000000000E-004
  CAR 
 unknown system                          
     12.00000000    -12.00000000 2401     -3.47000000      1.00000000
    -12.000  0.4000E+03  0.4000E+01
    -11.990  0.0000E+00  0.4000E+01
    -11.980  0.0000E+00  0.4000E+01
    -11.970  0.0000E+00  0.4000E+01
    -11.960  0.0000E+00  0.4000E+01
    -11.950  0.0000E+00  0.4000E+01
    -11.940  0.0000E+00  0.4000E+01
    -11.930  0.0000E+00  0.4000E+01
    -11.920  0.0000E+00  0.4000E+01
    -11.910  0.0000E+00  0.4000E+01
    -11.900  0.0000E+00  0.4000E+01
    -11.890  0.0000E+00  0.4000E+01
    -11.880  0.0000E+00  0.4000E+01
    -11.870  0.0000E+00  0.4000E+01
    -11.860  0.0000E+00  0.4000E+01
    -11.850  0.0000E+00  0.4000E+01
    -11.840  0.0000E+00  0.4000E+01
    -11.830  0.0000E+00  0.4000E+01
    -11.820  0.0000E+00  0.4000E+01
    -11.810  0.0000E+00  0.4000E+01
    -11.800  0.0000E+00  0.4000E+01
    -11.790  0.0000E+00  0.4000E+01
    -11.780  0.0000E+00  0.4000E+01
    -11.770  0.0000E+00  0.4000E+01
    -11.760  0.0000E+00  0.4000E+01
    -11.750  0.0000E+00  0.4000E+01
    -11.740  0.0000E+00  0.4000E+01
    -11.730  0.0000E+00  0.4000E+01
    -11.720  0.0000E+00  0.4000E+01
    -11.710  0.0000E+00  0.4000E+01
    -11.700  0.0000E+00  0.4000E+01
    -11.690  0.0000E+00  0.4000E+01
    -11.680  0.0000E+00  0.4000E+01
    -11.670  0.0000E+00  0.4000E+01
    -11.660  0.0000E+00  0.4000E+01
    -11.650  0.0000E+00  0.4000E+01
    -11.640  0.0000E+00  0.4000E+01
    -11.630  0.0000E+00  0.4000E+01
    -11.620  0.0000E+00  0.4000E+01
    -11.610  0.0000E+00  0.4000E+01
    -11.600  0.0000E+00  0.4000E+01
    -11.590  0.0000E+00  0.4000E+01
    -11.580  0.0000E+00  0.4000E+01
    -11.570  0.0000E+00  0.4000E+01
    -11.560  0.0000E+00  0.4000E+01
    -11.550  0.0000E+00  0.4000E+01
    -11.540  0.0000E+00  0.4000E+01
    -11.530  0.0000E+00  0.4000E+01
    -11.520  0.0000E+00  0.4000E+01
    -11.510  0.0000E+00  0.4000E+01
    -11.500  0.0000E+00  0.4000E+01
    -11.490  0.0000E+00  0.4000E+01
    -11.480  0.0000E+00  0.4000E+01
    -11.470  0.0000E+00  0.4000E+01
    -11.460  0.0000E+00  0.4000E+01
    -11.450  0.0000E+00  0.4000E+01
    -11.440  0.0000E+00  0.4000E+01
    -11.430  0.0000E+00  0.4000E+01
    -11.420  0.0000E+00  0.4000E+01
    -11.410  0.0000E+00  0.4000E+01
    -11.400  0.0000E+00  0.4000E+01
    -11.390  0.0000E+00  0.4000E+01
    -11.380  0.0000E+00  0.4000E+01
    -11.370  0.0000E+00  0.4000E+01
    -11.360  0.0000E+00  0.4000E+01
    -11.350  0.0000E+00  0.4000E+01
    -11.340  0.0000E+00  0.4000E+01
    -11.330  0.0000E+00  0.4000E+01
    -11.320  0.0000E+00  0.4000E+01
    -11.310  0.0000E+00  0.4000E+01
    -11.300  0.0000E+00  0.4000E+01
    -11.290  0.0000E+00  0.4000E+01
    -11.280  0.0000E+00  0.4000E+01
    -11.270  0.0000E+00  0.4000E+01
    -11.260  0.0000E+00  0.4000E+01
    -11.250  0.0000E+00  0.4000E+01
    -11.240  0.0000E+00  0.4000E+01
    -11.230  0.0000E+00  0.4000E+01
    -11.220  0.0000E+00  0.4000E+01
    -11.210  0.0000E+00  0.4000E+01
    -11.200  0.0000E+00  0.4000E+01
    -11.190  0.0000E+00  0.4000E+01
    -11.180  0.5204E-15  0.4000E+01
    -11.170  0.0000E+00  0.4000E+01
    -11.160  0.1041E-14  0.4000E+01
    -11.150  0.1041E-14  0.4000E+01
    -11.140  0.1561E-14  0.4000E+01
    -11.130  0.3643E-14  0.4000E+01
    -11.120  0.5725E-14  0.4000E+01
    -11.110  0.1041E-13  0.4000E+01
    -11.100  0.1769E-13  0.4000E+01
    -11.090  0.3123E-13  0.4000E+01
    -11.080  0.5308E-13  0.4000E+01
    -11.070  0.9107E-13  0.4000E+01
    -11.060  0.1556E-12  0.4000E+01
    -11.050  0.2639E-12  0.4000E+01
    -11.040  0.4450E-12  0.4000E+01
    -11.030  0.7468E-12  0.4000E+01
    -11.020  0.1248E-11  0.4000E+01
    -11.010  0.2073E-11  0.4000E+01
    -11.000  0.3429E-11  0.4000E+01
    -10.990  0.5643E-11  0.4000E+01
    -10.980  0.9240E-11  0.4000E+01
    -10.970  0.1505E-10  0.4000E+01
    -10.960  0.2440E-10  0.4000E+01
    -10.950  0.3936E-10  0.4000E+01
    -10.940  0.6318E-10  0.4000E+01
    -10.930  0.1009E-09  0.4000E+01
    -10.920  0.1603E-09  0.4000E+01
    -10.910  0.2535E-09  0.4000E+01
    -10.900  0.3988E-09  0.4000E+01
    -10.890  0.6242E-09  0.4000E+01
    -10.880  0.9722E-09  0.4000E+01
    -10.870  0.1507E-08  0.4000E+01
    -10.860  0.2323E-08  0.4000E+01
    -10.850  0.3565E-08  0.4000E+01
    -10.840  0.5443E-08  0.4000E+01
    -10.830  0.8268E-08  0.4000E+01
    -10.820  0.1250E-07  0.4000E+01
    -10.810  0.1880E-07  0.4000E+01
    -10.800  0.2813E-07  0.4000E+01
    -10.790  0.4189E-07  0.4000E+01
    -10.780  0.6206E-07  0.4000E+01
    -10.770  0.9150E-07  0.4000E+01
    -10.760  0.1342E-06  0.4000E+01
    -10.750  0.1959E-06  0.4000E+01
    -10.740  0.2845E-06  0.4000E+01
    -10.730  0.4112E-06  0.4000E+01
    -10.720  0.5912E-06  0.4000E+01
    -10.710  0.8458E-06  0.4000E+01
    -10.700  0.1204E-05  0.4000E+01
    -10.690  0.1706E-05  0.4000E+01
    -10.680  0.2404E-05  0.4000E+01
    -10.670  0.3372E-05  0.4000E+01
    -10.660  0.4705E-05  0.4000E+01
    -10.650  0.6533E-05  0.4000E+01
    -10.640  0.9026E-05  0.4000E+01
    -10.630  0.1241E-04  0.4000E+01
    -10.620  0.1697E-04  0.4000E+01
    -10.610  0.2310E-04  0.4000E+01
    -10.600  0.3128E-04  0.4000E+01
    -10.590  0.4216E-04  0.4000E+01
    -10.580  0.5653E-04  0.4000E+01
    -10.570  0.7542E-04  0.4000E+01
    -10.560  0.1001E-03  0.4000E+01
    -10.550  0.1323E-03  0.4000E+01
    -10.540  0.1738E-03  0.4000E+01
    -10.530  0.2274E-03  0.4000E+01
    -10.520  0.2959E-03  0.4000E+01
    -10.510  0.3831E-03  0.4000E+01
    -10.500  0.4937E-03  0.4000E+01
    -10.490  0.6329E-03  0.4000E+01
    -10.480  0.8074E-03  0.4000E+01
    -10.470  0.1025E-02  0.4000E+01
    -10.460  0.1295E-02  0.4000E+01
    -10.450  0.1627E-02  0.4000E+01
    -10.440  0.2035E-02  0.4000E+01
    -10.430  0.2533E-02  0.4000E+01
    -10.420  0.3137E-02  0.4000E+01
    -10.410  0.3866E-02  0.4000E+01
    -10.400  0.4740E-02  0.4000E+01
    -10.390  0.5784E-02  0.4000E+01
    -10.380  0.7024E-02  0.4000E+01
    -10.370  0.8487E-02  0.4000E+01
    -10.360  0.1020E-01  0.4001E+01
    -10.350  0.1221E-01  0.4001E+01
    -10.340  0.1454E-01  0.4001E+01
    -10.330  0.1723E-01  0.4001E+01
    -10.320  0.2032E-01  0.4001E+01
    -10.310  0.2385E-01  0.4001E+01
    -10.300  0.2786E-01  0.4002E+01
    -10.290  0.3239E-01  0.4002E+01
    -10.280  0.3748E-01  0.4002E+01
    -10.270  0.4317E-01  0.4003E+01
    -10.260  0.4949E-01  0.4003E+01
    -10.250  0.5647E-01  0.4004E+01
    -10.240  0.6415E-01  0.4005E+01
    -10.230  0.7254E-01  0.4005E+01
    -10.220  0.8167E-01  0.4006E+01
    -10.210  0.9156E-01  0.4007E+01
    -10.200  0.1022E+00  0.4008E+01
    -10.190  0.1136E+00  0.4009E+01
    -10.180  0.1258E+00  0.4010E+01
    -10.170  0.1387E+00  0.4012E+01
    -10.160  0.1524E+00  0.4013E+01
    -10.150  0.1668E+00  0.4015E+01
    -10.140  0.1819E+00  0.4017E+01
    -10.130  0.1978E+00  0.4019E+01
    -10.120  0.2144E+00  0.4021E+01
    -10.110  0.2317E+00  0.4023E+01
    -10.100  0.2497E+00  0.4026E+01
    -10.090  0.2684E+00  0.4028E+01
    -10.080  0.2880E+00  0.4031E+01
    -10.070  0.3083E+00  0.4034E+01
    -10.060  0.3296E+00  0.4038E+01
    -10.050  0.3519E+00  0.4041E+01
    -10.040  0.3753E+00  0.4045E+01
    -10.030  0.4000E+00  0.4049E+01
    -10.020  0.4261E+00  0.4053E+01
    -10.010  0.4537E+00  0.4058E+01
    -10.000  0.4832E+00  0.4063E+01
     -9.990  0.5146E+00  0.4068E+01
     -9.980  0.5482E+00  0.4073E+01
     -9.970  0.5842E+00  0.4079E+01
     -9.960  0.6229E+00  0.4085E+01
     -9.950  0.6644E+00  0.4092E+01
     -9.940  0.7090E+00  0.4099E+01
     -9.930  0.7568E+00  0.4107E+01
     -9.920  0.8079E+00  0.4115E+01
     -9.910  0.8624E+00  0.4123E+01
     -9.900  0.9205E+00  0.4133E+01
     -9.890  0.9820E+00  0.4142E+01
     -9.880  0.1047E+01  0.4153E+01
     -9.870  0.1115E+01  0.4164E+01
     -9.860  0.1186E+01  0.4176E+01
     -9.850  0.1261E+01  0.4188E+01
     -9.840  0.1337E+01  0.4202E+01
     -9.830  0.1416E+01  0.4216E+01
     -9.820  0.1496E+01  0.4231E+01
     -9.810  0.1577E+01  0.4247E+01
     -9.800  0.1658E+01  0.4263E+01
     -9.790  0.1740E+01  0.4281E+01
     -9.780  0.1820E+01  0.4299E+01
     -9.770  0.1899E+01  0.4318E+01
     -9.760  0.1976E+01  0.4338E+01
     -9.750  0.2050E+01  0.4358E+01
     -9.740  0.2121E+01  0.4379E+01
     -9.730  0.2187E+01  0.4401E+01
     -9.720  0.2249E+01  0.4424E+01
     -9.710  0.2306E+01  0.4447E+01
     -9.700  0.2357E+01  0.4470E+01
     -9.690  0.2403E+01  0.4494E+01
     -9.680  0.2442E+01  0.4519E+01
     -9.670  0.2476E+01  0.4544E+01
     -9.660  0.2504E+01  0.4569E+01
     -9.650  0.2526E+01  0.4594E+01
     -9.640  0.2543E+01  0.4619E+01
     -9.630  0.2554E+01  0.4645E+01
     -9.620  0.2561E+01  0.4670E+01
     -9.610  0.2564E+01  0.4696E+01
     -9.600  0.2564E+01  0.4722E+01
     -9.590  0.2561E+01  0.4747E+01
     -9.580  0.2556E+01  0.4773E+01
     -9.570  0.2551E+01  0.4798E+01
     -9.560  0.2545E+01  0.4824E+01
     -9.550  0.2540E+01  0.4849E+01
     -9.540  0.2538E+01  0.4875E+01
     -9.530  0.2537E+01  0.4900E+01
     -9.520  0.2540E+01  0.4925E+01
     -9.510  0.2548E+01  0.4951E+01
     -9.500  0.2560E+01  0.4976E+01
     -9.490  0.2578E+01  0.5002E+01
     -9.480  0.2601E+01  0.5028E+01
     -9.470  0.2631E+01  0.5055E+01
     -9.460  0.2667E+01  0.5081E+01
     -9.450  0.2710E+01  0.5108E+01
     -9.440  0.2759E+01  0.5136E+01
     -9.430  0.2814E+01  0.5164E+01
     -9.420  0.2876E+01  0.5193E+01
     -9.410  0.2943E+01  0.5222E+01
     -9.400  0.3015E+01  0.5252E+01
     -9.390  0.3091E+01  0.5283E+01
     -9.380  0.3171E+01  0.5315E+01
     -9.370  0.3253E+01  0.5348E+01
     -9.360  0.3337E+01  0.5381E+01
     -9.350  0.3422E+01  0.5415E+01
     -9.340  0.3507E+01  0.5450E+01
     -9.330  0.3590E+01  0.5486E+01
     -9.320  0.3671E+01  0.5523E+01
     -9.310  0.3748E+01  0.5560E+01
     -9.300  0.3821E+01  0.5598E+01
     -9.290  0.3888E+01  0.5637E+01
     -9.280  0.3949E+01  0.5677E+01
     -9.270  0.4002E+01  0.5717E+01
     -9.260  0.4047E+01  0.5757E+01
     -9.250  0.4084E+01  0.5798E+01
     -9.240  0.4111E+01  0.5839E+01
     -9.230  0.4128E+01  0.5881E+01
     -9.220  0.4135E+01  0.5922E+01
     -9.210  0.4131E+01  0.5963E+01
     -9.200  0.4116E+01  0.6004E+01
     -9.190  0.4090E+01  0.6045E+01
     -9.180  0.4053E+01  0.6086E+01
     -9.170  0.4006E+01  0.6126E+01
     -9.160  0.3947E+01  0.6165E+01
     -9.150  0.3878E+01  0.6204E+01
     -9.140  0.3800E+01  0.6242E+01
     -9.130  0.3711E+01  0.6279E+01
     -9.120  0.3614E+01  0.6315E+01
     -9.110  0.3509E+01  0.6350E+01
     -9.100  0.3397E+01  0.6384E+01
     -9.090  0.3278E+01  0.6417E+01
     -9.080  0.3154E+01  0.6449E+01
     -9.070  0.3025E+01  0.6479E+01
     -9.060  0.2892E+01  0.6508E+01
     -9.050  0.2756E+01  0.6535E+01
     -9.040  0.2619E+01  0.6562E+01
     -9.030  0.2480E+01  0.6586E+01
     -9.020  0.2342E+01  0.6610E+01
     -9.010  0.2205E+01  0.6632E+01
     -9.000  0.2071E+01  0.6653E+01
     -8.990  0.1939E+01  0.6672E+01
     -8.980  0.1811E+01  0.6690E+01
     -8.970  0.1687E+01  0.6707E+01
     -8.960  0.1569E+01  0.6723E+01
     -8.950  0.1456E+01  0.6737E+01
     -8.940  0.1350E+01  0.6751E+01
     -8.930  0.1250E+01  0.6763E+01
     -8.920  0.1157E+01  0.6775E+01
     -8.910  0.1072E+01  0.6786E+01
     -8.900  0.9941E+00  0.6796E+01
     -8.890  0.9237E+00  0.6805E+01
     -8.880  0.8606E+00  0.6813E+01
     -8.870  0.8049E+00  0.6821E+01
     -8.860  0.7563E+00  0.6829E+01
     -8.850  0.7146E+00  0.6836E+01
     -8.840  0.6793E+00  0.6843E+01
     -8.830  0.6501E+00  0.6849E+01
     -8.820  0.6266E+00  0.6856E+01
     -8.810  0.6083E+00  0.6862E+01
     -8.800  0.5946E+00  0.6868E+01
     -8.790  0.5852E+00  0.6874E+01
     -8.780  0.5794E+00  0.6879E+01
     -8.770  0.5767E+00  0.6885E+01
     -8.760  0.5766E+00  0.6891E+01
     -8.750  0.5788E+00  0.6897E+01
     -8.740  0.5826E+00  0.6902E+01
     -8.730  0.5878E+00  0.6908E+01
     -8.720  0.5940E+00  0.6914E+01
     -8.710  0.6009E+00  0.6920E+01
     -8.700  0.6083E+00  0.6926E+01
     -8.690  0.6161E+00  0.6933E+01
     -8.680  0.6242E+00  0.6939E+01
     -8.670  0.6326E+00  0.6945E+01
     -8.660  0.6414E+00  0.6952E+01
     -8.650  0.6507E+00  0.6958E+01
     -8.640  0.6608E+00  0.6965E+01
     -8.630  0.6718E+00  0.6971E+01
     -8.620  0.6843E+00  0.6978E+01
     -8.610  0.6984E+00  0.6985E+01
     -8.600  0.7148E+00  0.6992E+01
     -8.590  0.7337E+00  0.7000E+01
     -8.580  0.7558E+00  0.7007E+01
     -8.570  0.7814E+00  0.7015E+01
     -8.560  0.8110E+00  0.7023E+01
     -8.550  0.8451E+00  0.7032E+01
     -8.540  0.8841E+00  0.7040E+01
     -8.530  0.9284E+00  0.7050E+01
     -8.520  0.9784E+00  0.7060E+01
     -8.510  0.1034E+01  0.7070E+01
     -8.500  0.1096E+01  0.7081E+01
     -8.490  0.1164E+01  0.7092E+01
     -8.480  0.1239E+01  0.7105E+01
     -8.470  0.1319E+01  0.7118E+01
     -8.460  0.1406E+01  0.7132E+01
     -8.450  0.1499E+01  0.7147E+01
     -8.440  0.1598E+01  0.7163E+01
     -8.430  0.1702E+01  0.7180E+01
     -8.420  0.1810E+01  0.7198E+01
     -8.410  0.1924E+01  0.7217E+01
     -8.400  0.2041E+01  0.7238E+01
     -8.390  0.2161E+01  0.7259E+01
     -8.380  0.2284E+01  0.7282E+01
     -8.370  0.2409E+01  0.7306E+01
     -8.360  0.2535E+01  0.7332E+01
     -8.350  0.2661E+01  0.7358E+01
     -8.340  0.2787E+01  0.7386E+01
     -8.330  0.2912E+01  0.7415E+01
     -8.320  0.3034E+01  0.7446E+01
     -8.310  0.3154E+01  0.7477E+01
     -8.300  0.3270E+01  0.7510E+01
     -8.290  0.3382E+01  0.7544E+01
     -8.280  0.3489E+01  0.7579E+01
     -8.270  0.3590E+01  0.7615E+01
     -8.260  0.3685E+01  0.7651E+01
     -8.250  0.3772E+01  0.7689E+01
     -8.240  0.3852E+01  0.7728E+01
     -8.230  0.3924E+01  0.7767E+01
     -8.220  0.3988E+01  0.7807E+01
     -8.210  0.4043E+01  0.7847E+01
     -8.200  0.4088E+01  0.7888E+01
     -8.190  0.4125E+01  0.7929E+01
     -8.180  0.4152E+01  0.7971E+01
     -8.170  0.4169E+01  0.8013E+01
     -8.160  0.4178E+01  0.8054E+01
     -8.150  0.4177E+01  0.8096E+01
     -8.140  0.4167E+01  0.8138E+01
     -8.130  0.4149E+01  0.8179E+01
     -8.120  0.4122E+01  0.8220E+01
     -8.110  0.4088E+01  0.8261E+01
     -8.100  0.4046E+01  0.8302E+01
     -8.090  0.3998E+01  0.8342E+01
     -8.080  0.3944E+01  0.8381E+01
     -8.070  0.3884E+01  0.8420E+01
     -8.060  0.3819E+01  0.8458E+01
     -8.050  0.3750E+01  0.8496E+01
     -8.040  0.3678E+01  0.8533E+01
     -8.030  0.3603E+01  0.8569E+01
     -8.020  0.3525E+01  0.8604E+01
     -8.010  0.3446E+01  0.8638E+01
     -8.000  0.3365E+01  0.8672E+01
     -7.990  0.3284E+01  0.8705E+01
     -7.980  0.3203E+01  0.8737E+01
     -7.970  0.3121E+01  0.8768E+01
     -7.960  0.3040E+01  0.8798E+01
     -7.950  0.2959E+01  0.8828E+01
     -7.940  0.2879E+01  0.8857E+01
     -7.930  0.2800E+01  0.8885E+01
     -7.920  0.2722E+01  0.8912E+01
     -7.910  0.2645E+01  0.8938E+01
     -7.900  0.2569E+01  0.8964E+01
     -7.890  0.2494E+01  0.8989E+01
     -7.880  0.2421E+01  0.9013E+01
     -7.870  0.2349E+01  0.9037E+01
     -7.860  0.2278E+01  0.9060E+01
     -7.850  0.2210E+01  0.9082E+01
     -7.840  0.2143E+01  0.9103E+01
     -7.830  0.2079E+01  0.9124E+01
     -7.820  0.2017E+01  0.9144E+01
     -7.810  0.1959E+01  0.9164E+01
     -7.800  0.1904E+01  0.9183E+01
     -7.790  0.1854E+01  0.9201E+01
     -7.780  0.1810E+01  0.9219E+01
     -7.770  0.1771E+01  0.9237E+01
     -7.760  0.1738E+01  0.9254E+01
     -7.750  0.1713E+01  0.9272E+01
     -7.740  0.1696E+01  0.9289E+01
     -7.730  0.1689E+01  0.9305E+01
     -7.720  0.1691E+01  0.9322E+01
     -7.710  0.1703E+01  0.9339E+01
     -7.700  0.1726E+01  0.9357E+01
     -7.690  0.1761E+01  0.9374E+01
     -7.680  0.1808E+01  0.9392E+01
     -7.670  0.1867E+01  0.9411E+01
     -7.660  0.1938E+01  0.9430E+01
     -7.650  0.2021E+01  0.9451E+01
     -7.640  0.2117E+01  0.9472E+01
     -7.630  0.2224E+01  0.9494E+01
     -7.620  0.2342E+01  0.9517E+01
     -7.610  0.2470E+01  0.9542E+01
     -7.600  0.2607E+01  0.9568E+01
     -7.590  0.2752E+01  0.9596E+01
     -7.580  0.2905E+01  0.9625E+01
     -7.570  0.3062E+01  0.9655E+01
     -7.560  0.3223E+01  0.9688E+01
     -7.550  0.3386E+01  0.9721E+01
     -7.540  0.3549E+01  0.9757E+01
     -7.530  0.3710E+01  0.9794E+01
     -7.520  0.3868E+01  0.9833E+01
     -7.510  0.4021E+01  0.9873E+01
     -7.500  0.4167E+01  0.9915E+01
     -7.490  0.4305E+01  0.9958E+01
     -7.480  0.4432E+01  0.1000E+02
     -7.470  0.4548E+01  0.1005E+02
     -7.460  0.4650E+01  0.1009E+02
     -7.450  0.4739E+01  0.1014E+02
     -7.440  0.4813E+01  0.1019E+02
     -7.430  0.4872E+01  0.1024E+02
     -7.420  0.4915E+01  0.1029E+02
     -7.410  0.4942E+01  0.1034E+02
     -7.400  0.4952E+01  0.1039E+02
     -7.390  0.4947E+01  0.1044E+02
     -7.380  0.4925E+01  0.1048E+02
     -7.370  0.4889E+01  0.1053E+02
     -7.360  0.4838E+01  0.1058E+02
     -7.350  0.4774E+01  0.1063E+02
     -7.340  0.4697E+01  0.1068E+02
     -7.330  0.4608E+01  0.1072E+02
     -7.320  0.4508E+01  0.1077E+02
     -7.310  0.4400E+01  0.1081E+02
     -7.300  0.4282E+01  0.1085E+02
     -7.290  0.4158E+01  0.1090E+02
     -7.280  0.4028E+01  0.1094E+02
     -7.270  0.3894E+01  0.1098E+02
     -7.260  0.3756E+01  0.1101E+02
     -7.250  0.3615E+01  0.1105E+02
     -7.240  0.3473E+01  0.1108E+02
     -7.230  0.3331E+01  0.1112E+02
     -7.220  0.3189E+01  0.1115E+02
     -7.210  0.3049E+01  0.1118E+02
     -7.200  0.2912E+01  0.1121E+02
     -7.190  0.2778E+01  0.1124E+02
     -7.180  0.2647E+01  0.1126E+02
     -7.170  0.2522E+01  0.1129E+02
     -7.160  0.2401E+01  0.1131E+02
     -7.150  0.2287E+01  0.1134E+02
     -7.140  0.2179E+01  0.1136E+02
     -7.130  0.2078E+01  0.1138E+02
     -7.120  0.1984E+01  0.1140E+02
     -7.110  0.1898E+01  0.1142E+02
     -7.100  0.1819E+01  0.1143E+02
     -7.090  0.1748E+01  0.1145E+02
     -7.080  0.1686E+01  0.1147E+02
     -7.070  0.1632E+01  0.1149E+02
     -7.060  0.1586E+01  0.1150E+02
     -7.050  0.1548E+01  0.1152E+02
     -7.040  0.1518E+01  0.1153E+02
     -7.030  0.1496E+01  0.1155E+02
     -7.020  0.1481E+01  0.1156E+02
     -7.010  0.1472E+01  0.1158E+02
     -7.000  0.1471E+01  0.1159E+02
     -6.990  0.1475E+01  0.1161E+02
     -6.980  0.1484E+01  0.1162E+02
     -6.970  0.1498E+01  0.1164E+02
     -6.960  0.1517E+01  0.1165E+02
     -6.950  0.1539E+01  0.1167E+02
     -6.940  0.1563E+01  0.1168E+02
     -6.930  0.1589E+01  0.1170E+02
     -6.920  0.1617E+01  0.1171E+02
     -6.910  0.1646E+01  0.1173E+02
     -6.900  0.1674E+01  0.1175E+02
     -6.890  0.1702E+01  0.1176E+02
     -6.880  0.1728E+01  0.1178E+02
     -6.870  0.1753E+01  0.1180E+02
     -6.860  0.1775E+01  0.1182E+02
     -6.850  0.1795E+01  0.1183E+02
     -6.840  0.1811E+01  0.1185E+02
     -6.830  0.1824E+01  0.1187E+02
     -6.820  0.1833E+01  0.1189E+02
     -6.810  0.1839E+01  0.1191E+02
     -6.800  0.1840E+01  0.1193E+02
     -6.790  0.1836E+01  0.1194E+02
     -6.780  0.1829E+01  0.1196E+02
     -6.770  0.1817E+01  0.1198E+02
     -6.760  0.1800E+01  0.1200E+02
     -6.750  0.1780E+01  0.1202E+02
     -6.740  0.1756E+01  0.1203E+02
     -6.730  0.1728E+01  0.1205E+02
     -6.720  0.1696E+01  0.1207E+02
     -6.710  0.1662E+01  0.1209E+02
     -6.700  0.1624E+01  0.1210E+02
     -6.690  0.1584E+01  0.1212E+02
     -6.680  0.1543E+01  0.1213E+02
     -6.670  0.1500E+01  0.1215E+02
     -6.660  0.1455E+01  0.1216E+02
     -6.650  0.1411E+01  0.1218E+02
     -6.640  0.1367E+01  0.1219E+02
     -6.630  0.1323E+01  0.1220E+02
     -6.620  0.1281E+01  0.1222E+02
     -6.610  0.1241E+01  0.1223E+02
     -6.600  0.1204E+01  0.1224E+02
     -6.590  0.1170E+01  0.1225E+02
     -6.580  0.1140E+01  0.1226E+02
     -6.570  0.1116E+01  0.1227E+02
     -6.560  0.1096E+01  0.1229E+02
     -6.550  0.1083E+01  0.1230E+02
     -6.540  0.1077E+01  0.1231E+02
     -6.530  0.1078E+01  0.1232E+02
     -6.520  0.1087E+01  0.1233E+02
     -6.510  0.1104E+01  0.1234E+02
     -6.500  0.1131E+01  0.1235E+02
     -6.490  0.1166E+01  0.1236E+02
     -6.480  0.1211E+01  0.1238E+02
     -6.470  0.1266E+01  0.1239E+02
     -6.460  0.1331E+01  0.1240E+02
     -6.450  0.1406E+01  0.1242E+02
     -6.440  0.1491E+01  0.1243E+02
     -6.430  0.1586E+01  0.1245E+02
     -6.420  0.1690E+01  0.1246E+02
     -6.410  0.1803E+01  0.1248E+02
     -6.400  0.1925E+01  0.1250E+02
     -6.390  0.2055E+01  0.1252E+02
     -6.380  0.2192E+01  0.1254E+02
     -6.370  0.2336E+01  0.1257E+02
     -6.360  0.2485E+01  0.1259E+02
     -6.350  0.2639E+01  0.1262E+02
     -6.340  0.2798E+01  0.1265E+02
     -6.330  0.2959E+01  0.1267E+02
     -6.320  0.3121E+01  0.1271E+02
     -6.310  0.3284E+01  0.1274E+02
     -6.300  0.3447E+01  0.1277E+02
     -6.290  0.3608E+01  0.1281E+02
     -6.280  0.3765E+01  0.1285E+02
     -6.270  0.3919E+01  0.1289E+02
     -6.260  0.4067E+01  0.1293E+02
     -6.250  0.4209E+01  0.1297E+02
     -6.240  0.4344E+01  0.1301E+02
     -6.230  0.4470E+01  0.1306E+02
     -6.220  0.4587E+01  0.1310E+02
     -6.210  0.4694E+01  0.1315E+02
     -6.200  0.4791E+01  0.1320E+02
     -6.190  0.4875E+01  0.1325E+02
     -6.180  0.4948E+01  0.1330E+02
     -6.170  0.5007E+01  0.1335E+02
     -6.160  0.5054E+01  0.1340E+02
     -6.150  0.5088E+01  0.1345E+02
     -6.140  0.5108E+01  0.1350E+02
     -6.130  0.5115E+01  0.1355E+02
     -6.120  0.5108E+01  0.1360E+02
     -6.110  0.5087E+01  0.1365E+02
     -6.100  0.5054E+01  0.1370E+02
     -6.090  0.5007E+01  0.1375E+02
     -6.080  0.4948E+01  0.1380E+02
     -6.070  0.4878E+01  0.1385E+02
     -6.060  0.4795E+01  0.1390E+02
     -6.050  0.4702E+01  0.1395E+02
     -6.040  0.4599E+01  0.1399E+02
     -6.030  0.4487E+01  0.1404E+02
     -6.020  0.4367E+01  0.1408E+02
     -6.010  0.4239E+01  0.1412E+02
     -6.000  0.4105E+01  0.1416E+02
     -5.990  0.3966E+01  0.1420E+02
     -5.980  0.3823E+01  0.1424E+02
     -5.970  0.3676E+01  0.1428E+02
     -5.960  0.3528E+01  0.1431E+02
     -5.950  0.3378E+01  0.1435E+02
     -5.940  0.3229E+01  0.1438E+02
     -5.930  0.3082E+01  0.1441E+02
     -5.920  0.2937E+01  0.1444E+02
     -5.910  0.2795E+01  0.1447E+02
     -5.900  0.2658E+01  0.1449E+02
     -5.890  0.2526E+01  0.1452E+02
     -5.880  0.2401E+01  0.1454E+02
     -5.870  0.2283E+01  0.1457E+02
     -5.860  0.2172E+01  0.1459E+02
     -5.850  0.2071E+01  0.1461E+02
     -5.840  0.1978E+01  0.1463E+02
     -5.830  0.1895E+01  0.1465E+02
     -5.820  0.1822E+01  0.1467E+02
     -5.810  0.1759E+01  0.1468E+02
     -5.800  0.1706E+01  0.1470E+02
     -5.790  0.1664E+01  0.1472E+02
     -5.780  0.1631E+01  0.1473E+02
     -5.770  0.1609E+01  0.1475E+02
     -5.760  0.1597E+01  0.1477E+02
     -5.750  0.1594E+01  0.1478E+02
     -5.740  0.1599E+01  0.1480E+02
     -5.730  0.1613E+01  0.1481E+02
     -5.720  0.1635E+01  0.1483E+02
     -5.710  0.1663E+01  0.1485E+02
     -5.700  0.1697E+01  0.1486E+02
     -5.690  0.1737E+01  0.1488E+02
     -5.680  0.1780E+01  0.1490E+02
     -5.670  0.1827E+01  0.1492E+02
     -5.660  0.1876E+01  0.1494E+02
     -5.650  0.1926E+01  0.1496E+02
     -5.640  0.1977E+01  0.1497E+02
     -5.630  0.2028E+01  0.1500E+02
     -5.620  0.2077E+01  0.1502E+02
     -5.610  0.2123E+01  0.1504E+02
     -5.600  0.2168E+01  0.1506E+02
     -5.590  0.2208E+01  0.1508E+02
     -5.580  0.2245E+01  0.1510E+02
     -5.570  0.2278E+01  0.1513E+02
     -5.560  0.2306E+01  0.1515E+02
     -5.550  0.2330E+01  0.1517E+02
     -5.540  0.2349E+01  0.1520E+02
     -5.530  0.2363E+01  0.1522E+02
     -5.520  0.2374E+01  0.1524E+02
     -5.510  0.2380E+01  0.1527E+02
     -5.500  0.2383E+01  0.1529E+02
     -5.490  0.2382E+01  0.1531E+02
     -5.480  0.2379E+01  0.1534E+02
     -5.470  0.2374E+01  0.1536E+02
     -5.460  0.2368E+01  0.1539E+02
     -5.450  0.2361E+01  0.1541E+02
     -5.440  0.2354E+01  0.1543E+02
     -5.430  0.2348E+01  0.1546E+02
     -5.420  0.2343E+01  0.1548E+02
     -5.410  0.2339E+01  0.1550E+02
     -5.400  0.2338E+01  0.1553E+02
     -5.390  0.2339E+01  0.1555E+02
     -5.380  0.2343E+01  0.1557E+02
     -5.370  0.2351E+01  0.1560E+02
     -5.360  0.2362E+01  0.1562E+02
     -5.350  0.2376E+01  0.1564E+02
     -5.340  0.2394E+01  0.1567E+02
     -5.330  0.2415E+01  0.1569E+02
     -5.320  0.2439E+01  0.1572E+02
     -5.310  0.2466E+01  0.1574E+02
     -5.300  0.2495E+01  0.1577E+02
     -5.290  0.2526E+01  0.1579E+02
     -5.280  0.2559E+01  0.1582E+02
     -5.270  0.2593E+01  0.1584E+02
     -5.260  0.2627E+01  0.1587E+02
     -5.250  0.2662E+01  0.1590E+02
     -5.240  0.2695E+01  0.1592E+02
     -5.230  0.2728E+01  0.1595E+02
     -5.220  0.2759E+01  0.1598E+02
     -5.210  0.2789E+01  0.1601E+02
     -5.200  0.2815E+01  0.1603E+02
     -5.190  0.2839E+01  0.1606E+02
     -5.180  0.2860E+01  0.1609E+02
     -5.170  0.2877E+01  0.1612E+02
     -5.160  0.2890E+01  0.1615E+02
     -5.150  0.2900E+01  0.1618E+02
     -5.140  0.2906E+01  0.1621E+02
     -5.130  0.2909E+01  0.1624E+02
     -5.120  0.2908E+01  0.1626E+02
     -5.110  0.2904E+01  0.1629E+02
     -5.100  0.2896E+01  0.1632E+02
     -5.090  0.2886E+01  0.1635E+02
     -5.080  0.2874E+01  0.1638E+02
     -5.070  0.2860E+01  0.1641E+02
     -5.060  0.2844E+01  0.1644E+02
     -5.050  0.2828E+01  0.1647E+02
     -5.040  0.2811E+01  0.1649E+02
     -5.030  0.2794E+01  0.1652E+02
     -5.020  0.2778E+01  0.1655E+02
     -5.010  0.2763E+01  0.1658E+02
     -5.000  0.2750E+01  0.1660E+02
     -4.990  0.2738E+01  0.1663E+02
     -4.980  0.2728E+01  0.1666E+02
     -4.970  0.2720E+01  0.1669E+02
     -4.960  0.2714E+01  0.1671E+02
     -4.950  0.2711E+01  0.1674E+02
     -4.940  0.2710E+01  0.1677E+02
     -4.930  0.2710E+01  0.1680E+02
     -4.920  0.2712E+01  0.1682E+02
     -4.910  0.2715E+01  0.1685E+02
     -4.900  0.2719E+01  0.1688E+02
     -4.890  0.2722E+01  0.1690E+02
     -4.880  0.2725E+01  0.1693E+02
     -4.870  0.2727E+01  0.1696E+02
     -4.860  0.2727E+01  0.1699E+02
     -4.850  0.2724E+01  0.1701E+02
     -4.840  0.2718E+01  0.1704E+02
     -4.830  0.2708E+01  0.1707E+02
     -4.820  0.2694E+01  0.1709E+02
     -4.810  0.2675E+01  0.1712E+02
     -4.800  0.2651E+01  0.1715E+02
     -4.790  0.2621E+01  0.1717E+02
     -4.780  0.2586E+01  0.1720E+02
     -4.770  0.2545E+01  0.1722E+02
     -4.760  0.2499E+01  0.1725E+02
     -4.750  0.2447E+01  0.1727E+02
     -4.740  0.2391E+01  0.1730E+02
     -4.730  0.2331E+01  0.1732E+02
     -4.720  0.2267E+01  0.1734E+02
     -4.710  0.2200E+01  0.1737E+02
     -4.700  0.2130E+01  0.1739E+02
     -4.690  0.2060E+01  0.1741E+02
     -4.680  0.1989E+01  0.1743E+02
     -4.670  0.1918E+01  0.1745E+02
     -4.660  0.1849E+01  0.1747E+02
     -4.650  0.1782E+01  0.1748E+02
     -4.640  0.1717E+01  0.1750E+02
     -4.630  0.1656E+01  0.1752E+02
     -4.620  0.1599E+01  0.1753E+02
     -4.610  0.1546E+01  0.1755E+02
     -4.600  0.1498E+01  0.1756E+02
     -4.590  0.1455E+01  0.1758E+02
     -4.580  0.1417E+01  0.1759E+02
     -4.570  0.1385E+01  0.1761E+02
     -4.560  0.1357E+01  0.1762E+02
     -4.550  0.1334E+01  0.1763E+02
     -4.540  0.1315E+01  0.1765E+02
     -4.530  0.1300E+01  0.1766E+02
     -4.520  0.1288E+01  0.1767E+02
     -4.510  0.1278E+01  0.1768E+02
     -4.500  0.1271E+01  0.1770E+02
     -4.490  0.1265E+01  0.1771E+02
     -4.480  0.1259E+01  0.1772E+02
     -4.470  0.1253E+01  0.1774E+02
     -4.460  0.1247E+01  0.1775E+02
     -4.450  0.1239E+01  0.1776E+02
     -4.440  0.1229E+01  0.1777E+02
     -4.430  0.1217E+01  0.1778E+02
     -4.420  0.1203E+01  0.1780E+02
     -4.410  0.1185E+01  0.1781E+02
     -4.400  0.1165E+01  0.1782E+02
     -4.390  0.1141E+01  0.1783E+02
     -4.380  0.1113E+01  0.1784E+02
     -4.370  0.1083E+01  0.1785E+02
     -4.360  0.1049E+01  0.1786E+02
     -4.350  0.1013E+01  0.1787E+02
     -4.340  0.9740E+00  0.1788E+02
     -4.330  0.9327E+00  0.1789E+02
     -4.320  0.8895E+00  0.1790E+02
     -4.310  0.8448E+00  0.1791E+02
     -4.300  0.7989E+00  0.1792E+02
     -4.290  0.7523E+00  0.1793E+02
     -4.280  0.7054E+00  0.1793E+02
     -4.270  0.6586E+00  0.1794E+02
     -4.260  0.6123E+00  0.1795E+02
     -4.250  0.5668E+00  0.1795E+02
     -4.240  0.5224E+00  0.1796E+02
     -4.230  0.4794E+00  0.1796E+02
     -4.220  0.4381E+00  0.1797E+02
     -4.210  0.3986E+00  0.1797E+02
     -4.200  0.3612E+00  0.1797E+02
     -4.190  0.3259E+00  0.1798E+02
     -4.180  0.2928E+00  0.1798E+02
     -4.170  0.2620E+00  0.1798E+02
     -4.160  0.2334E+00  0.1798E+02
     -4.150  0.2071E+00  0.1799E+02
     -4.140  0.1830E+00  0.1799E+02
     -4.130  0.1611E+00  0.1799E+02
     -4.120  0.1412E+00  0.1799E+02
     -4.110  0.1233E+00  0.1799E+02
     -4.100  0.1072E+00  0.1799E+02
     -4.090  0.9282E-01  0.1799E+02
     -4.080  0.8007E-01  0.1800E+02
     -4.070  0.6879E-01  0.1800E+02
     -4.060  0.5887E-01  0.1800E+02
     -4.050  0.5019E-01  0.1800E+02
     -4.040  0.4262E-01  0.1800E+02
     -4.030  0.3605E-01  0.1800E+02
     -4.020  0.3037E-01  0.1800E+02
     -4.010  0.2549E-01  0.1800E+02
     -4.000  0.2131E-01  0.1800E+02
     -3.990  0.1775E-01  0.1800E+02
     -3.980  0.1473E-01  0.1800E+02
     -3.970  0.1217E-01  0.1800E+02
     -3.960  0.1002E-01  0.1800E+02
     -3.950  0.8217E-02  0.1800E+02
     -3.940  0.6712E-02  0.1800E+02
     -3.930  0.5462E-02  0.1800E+02
     -3.920  0.4427E-02  0.1800E+02
     -3.910  0.3574E-02  0.1800E+02
     -3.900  0.2874E-02  0.1800E+02
     -3.890  0.2302E-02  0.1800E+02
     -3.880  0.1837E-02  0.1800E+02
     -3.870  0.1459E-02  0.1800E+02
     -3.860  0.1155E-02  0.1800E+02
     -3.850  0.9104E-03  0.1800E+02
     -3.840  0.7146E-03  0.1800E+02
     -3.830  0.5586E-03  0.1800E+02
     -3.820  0.4349E-03  0.1800E+02
     -3.810  0.3372E-03  0.1800E+02
     -3.800  0.2603E-03  0.1800E+02
     -3.790  0.2001E-03  0.1800E+02
     -3.780  0.1532E-03  0.1800E+02
     -3.770  0.1168E-03  0.1800E+02
     -3.760  0.8862E-04  0.1800E+02
     -3.750  0.6697E-04  0.1800E+02