    3    3    1    1
  0.1201094E+03  0.3190316E-09  0.3190316E-09  0.4087900E-08  0.5000000E-15
  1.000000000000000E-004
  CAR 
 unknown system                          
     18     10     14
 
  0.0000000E+00  0.0000000E+00  0.0000000E+00  0.1562500E-01
    1      -18.332218   1.000000
    2      -17.123869   1.000000
    3       -9.841959   1.000000
    4       -6.880130   1.000000
    5       -6.879871   1.000000
    6       -6.020209   1.000000
    7       -5.772913   1.000000
    8       -5.772447   1.000000
    9       -4.297798   1.000000
   10       -1.523833   0.000000
   11       -1.523051   0.000000
   12       -1.301347   0.000000
   13       -1.300662   0.000000
   14        1.109176   0.000000
 
  0.1250000E+00  0.6938894E-17  0.0000000E+00  0.9375000E-01
    1      -18.118165   1.000000
    2      -17.021420   1.000000
    3       -9.597244   1.000000
    4       -7.344459   1.000000
    5       -6.827392   1.000000
    6       -6.645869   1.000000
    7       -6.109069   1.000000
    8       -5.341641   1.000000
    9       -4.436631   1.000000
   10       -1.806481   0.000000
   11       -1.739978   0.000000
   12       -1.538272   0.000000
   13       -1.169455   0.000000
   14        1.477762   0.000000
 
  0.2500000E+00  0.1387779E-16  0.0000000E+00  0.9375000E-01
    1      -17.549612   1.000000
    2      -16.752494   1.000000
    3       -9.231011   1.000000
    4       -8.072722   1.000000
    5       -7.808949   1.000000
    6       -6.745673   1.000000
    7       -6.059886   1.000000
    8       -5.593526   1.000000
    9       -5.005160   1.000000
   10       -2.130655   0.000000
   11       -1.955329   0.000000
   12       -1.412459   0.000000
   13       -0.554507   0.000000
   14        2.302881   0.000000
 
  0.3750000E+00 -0.5551115E-16  0.0000000E+00  0.9375000E-01
    1      -16.874670   1.000000
    2      -16.443915   1.000000
    3       -9.670436   1.000000
    4       -8.677712   1.000000
    5       -8.203884   1.000000
    6       -7.244285   1.000000
    7       -6.002691   1.000000
    8       -5.469929   1.000000
    9       -5.199276   1.000000
   10       -2.138062   0.000000
   11       -1.858120   0.000000
   12       -0.693643   0.000000
   13       -0.161716   0.000000
   14        2.862900   0.000000
 
  0.5000000E+00  0.2775558E-16  0.0000000E+00  0.4687500E-01
    1      -16.546402   1.000000
    2      -16.300572   1.000000
    3      -10.003424   1.000000
    4       -9.043916   1.000000
    5       -8.329351   1.000000
    6       -7.424992   1.000000
    7       -6.141019   1.000000
    8       -5.242953   1.000000
    9       -4.917763   1.000000
   10       -2.116408   0.000000
   11       -1.601685   0.000000
   12       -0.393832   0.000000
   13       -0.046110   0.000000
   14        1.908610   0.000000
 
  0.1250000E+00  0.1250000E+00  0.0000000E+00  0.9375000E-01
    1      -17.725486   1.000000
    2      -16.834312   1.000000
    3       -9.249695   1.000000
    4       -7.909771   1.000000
    5       -7.390246   1.000000
    6       -6.923519   1.000000
    7       -6.307259   1.000000
    8       -5.206866   1.000000
    9       -4.809377   1.000000
   10       -2.205709   0.000000
   11       -1.828133   0.000000
   12       -1.816091   0.000000
   13       -0.575466   0.000000
   14        2.068541   0.000000
 
  0.2500000E+00  0.1250000E+00  0.0000000E+00  0.1875000E+00
    1      -17.092100   1.000000
    2      -16.535665   1.000000
    3       -9.313900   1.000000
    4       -8.336304   1.000000
    5       -8.073008   1.000000
    6       -7.428945   1.000000
    7       -6.208337   1.000000
    8       -5.569851   1.000000
    9       -5.093170   1.000000
   10       -2.289408   0.000000
   11       -1.842643   0.000000
   12       -1.345952   0.000000
   13       -0.070062   0.000000
   14        3.052390   0.000000
 
  0.3750000E+00  0.1250000E+00  0.0000000E+00  0.1875000E+00
    1      -16.561672   1.000000
    2      -16.291704   1.000000
    3       -9.715762   1.000000
    4       -9.099899   1.000000
    5       -8.201976   1.000000
    6       -7.446465   1.000000
    7       -6.193117   1.000000
    8       -6.050977   1.000000
    9       -4.766325   1.000000
   10       -2.097346   0.000000
   11       -1.587249   0.000000
   12       -0.721937   0.000000
   13       -0.035879   0.000000
   14        2.433531   0.000000
 
  0.2500000E+00  0.2500000E+00  0.0000000E+00  0.9375000E-01
    1      -16.576684   1.000000
    2      -16.282790   1.000000
    3       -9.355118   1.000000
    4       -9.149857   1.000000
    5       -7.875602   1.000000
    6       -7.494799   1.000000
    7       -7.175560   1.000000
    8       -5.918206   1.000000
    9       -4.796153   1.000000
   10       -2.148123   0.000000
   11       -1.536566   0.000000
   12       -1.220150   0.000000
   13        0.248112   0.000000
   14        3.264263   0.000000
 
  0.3750000E+00  0.2500000E+00  0.0000000E+00  0.9375000E-01
    1      -16.341738   1.000000
    2      -16.163759   1.000000
    3       -9.534616   1.000000
    4       -9.185916   1.000000
    5       -8.159093   1.000000
    6       -7.497037   1.000000
    7       -7.268867   1.000000
    8       -6.303743   1.000000
    9       -4.428824   1.000000
   10       -2.474505   0.000000
   11       -1.159282   0.000000
   12       -0.987264   0.000000
   13        0.391293   0.000000
   14        2.677478   0.000000
