unknown system                          
   1.00000000000000     
     3.190316    0.000000    0.000000
    -1.595158    2.762894    0.000000
     0.000000    0.000000   40.879004
   Mo   S 
     1     2
Direct
  0.333333  0.666667  0.090994
  0.666667  0.333333  0.052713
  0.666666  0.333333  0.129275
 
   12   12  160
 0.21757E-02 0.12043E-01 0.94523     0.50369E-03 0.99741     0.12287E-01 0.41144E-02 0.24012E-02 0.87243E-02 0.36423E-03
 0.12522E-01 0.64148E-02 0.32925E-02 0.14459E-02 0.13394E-02 0.21482E-02 0.16169E-01 0.72329E-02 0.36718E-01 0.40072E-02
 0.11113     0.26515E-02 0.19758E-02 0.31427E-02 0.60778E-03 0.24072E-02 0.22213E-02 0.14833E-02 0.22956E-01 0.94446E-02
 0.99564E-02 0.66739E-02 0.24492E-01 0.10393E-01 0.47049E-01 0.78677E-02 0.96103E-03 0.13658E-03 0.93028E-03 0.34365E-02
 0.34934E-02 0.18670E-02 0.56325E-02 0.47428E-02 0.13060E-01 0.92985     0.24115E-01 0.12043E-02 0.16771E-01 0.72642E-02
 0.13602E-02 0.53989E-03 0.30591E-01 0.10042E-01 0.22544E-01 0.14720E-01 0.14780     0.15165E-01 0.31960E-01 0.34108E-01
 0.11045E-02 0.93595E-03 0.85363E-04 0.88676E-04 0.29798E-03 0.15970E-01 0.13600E-01 0.93940     0.16817E-01 0.40248E-02
 0.56532E-02 0.69394E-02 0.28952E-01 0.17947E-02 0.94008E-03 0.55212E-04 0.13499E-02 0.11389E-01 0.47464E-01 0.44159E-01
 0.24695E-01 0.48157E-02 0.19844E-01 0.17681E-01 0.77399E-02 0.26883     0.31593E-03 0.19541E-03 0.43173E-03 0.73638E-03
 0.11628     0.20672E-02 0.11556E-01 0.40845E-02 0.10615E-01 0.35572     0.83783E-02 0.44452     0.19448E-01 0.12851E-03
 0.19039E-01 0.99428E-03 0.32948E-03 0.72761E-03 0.29507     0.14847E-02 0.72647     0.76015     0.78667E-02 0.53351E-03
 0.96546E-01 0.53728E-01 0.46705E-02 0.65702E-04 0.25238E-03 0.69898E-04 0.46012E-02 0.59384E-02 0.93654     0.11861E-02
 0.14485E-02 0.54558E-01 0.61403E-02 0.29690E-03 0.24429E-02 0.92735E-03 0.21678E-03 0.22280E-03 0.42375E-02 0.22342E-03
 0.15933E-01 0.38322     0.28207E-02 0.16687E-02 0.10360E-02 0.10958E-02 0.30778E-02 0.10085E-02 0.99408E-02 0.32861E-03
 0.20991E-01 0.39259E-03 0.54389E-03 0.21840E-02 0.35206E-02 0.79832E-02 0.26929E-01 0.36673E-02 0.19581     0.60143    
 0.28901E-01 0.54112E-01 0.27329E-01 0.26615E-02 0.16599     0.65448E-02 0.48217E-02 0.31591E-02 0.54089E-02 0.63803E-01
 0.63101E-01 0.52211E-01 0.95443     0.33776E-01 0.78334     0.60222E-01 0.11201E-01 0.87809E-02 0.25099E-02 0.38338    
 0.60133E-02 0.96314E-02 0.79889E-01 0.28304     0.71440E-01 0.19404     0.11219     0.69408E-01 0.11360     0.49110    
 0.20470E-01 0.68318E-03 0.56045E-01 0.12623E-01 0.90882E-01 0.19256E-01 0.15743     0.40423E-01 0.58018     0.43445    
 0.71627     0.10667E-01 0.99939     0.74328E-02 0.10422     0.27088E-02 0.52257E-01 0.37045     0.10909     0.66025    
 0.50315     0.81537E-01 0.88450     0.10358     0.98342E-02 0.20457E-01 0.46164E-03 0.11704E-02 0.21834E-02 0.62440    
 0.78865E-01 0.42947     0.86359E-01 0.12627     0.47565E-01 0.18713     0.99928     0.11440E-01 0.38632E-01 0.29226E-03
 0.11955     0.31261E-01 0.11130     0.97775     0.77683     0.43025E-01 0.66898     0.96838E-01 0.43912E-01 0.99207E-01
 0.19561E-02 0.27999E-02 0.13907E-02 0.38974E-02 0.32020     0.15873E-01 0.60973E-01 0.96548E-01 0.72797E-01 0.56000    
 0.34907E-01 0.10839     0.13705E-01 0.59974E-03 0.41290E-02 0.12977     0.16397E-02 0.15128E-01 0.27230     0.12590E-01
 0.31766     0.34590     0.96345     0.27819E-02 0.10247E-01 0.14472E-01 0.40090E-01 0.34507E-03 0.56610E-02 0.39472E-03
 0.10720     0.46391     0.14564     0.81181E-02 0.48642E-02 0.21490E-01 0.47663E-02 0.12632E-02 0.68397E-02 0.23083E-01
 0.12771E-02 0.42389E-02 0.31793E-02 0.97862E-03 0.13581E-01 0.51529E-01 0.44737E-02 0.30574E-02 0.28653E-02 0.45191E-01
 0.11401E-01 0.75850E-02 0.89934     0.24189E-02 0.82921E-01 0.95640E-02 0.15666E-02 0.38899E-02 0.40346E-02 0.80174E-02
 0.27009E-01 0.17433E-01 0.22282     0.68012     0.13978     0.83999     0.82043E-01 0.13174E-01 0.46368E-01 0.74884E-02
 0.65134E-02 0.53562E-02 0.16038E-01 0.96194     0.18479     0.23861     0.81807     0.20251     0.65486     0.88098    
 0.45346E-01 0.20906E-01 0.81820E-02 0.18132E-01 0.13853E-01 0.42723E-01 0.24144     0.98530     0.38906     0.95653    
 0.44935     0.30309     0.27462     0.49031     0.91634     0.27397E-02 0.60866E-01 0.35526E-01 0.99137     0.14417    
 0.93108     0.36483     0.99871     0.74906     0.89448     0.63348E-01 0.41286     0.15591E-01 0.14577E-01 0.96286E-02
 0.11648     0.94377     0.44693     0.99994     0.89644     0.51303     0.94484     0.29524     0.59713E-01 0.96083    
 0.20541E-02 0.49810E-01 0.11142E-01 0.76054     0.32191     0.74427     0.52607     0.83018     0.33613     0.99568    
 0.59684     0.45962E-01 0.11922     0.12512E-02 0.71833E-01 0.75417E-01 0.27307     0.82979     0.95972     0.31891    
 0.96296     0.36406     0.16260     0.13082     0.76139E-02 0.21118     0.29736E-02 0.11778E-01 0.20868     0.81512E-01
 0.23578     0.90969     0.31955     0.55766     0.10277     0.91875E-01 0.17931E-01 0.18536E-02 0.29992E-02 0.15354E-01
 0.58621E-02 0.74933     0.25377     0.71266E-01 0.38291     0.38157     0.18964     0.10012E-01 0.11408E-01 0.85086E-02
 0.84532E-02 0.13086E-02 0.83226E-01 0.18336E-02 0.38282E-01 0.28349     0.16699     0.37846E-01 0.12573E-01 0.15484E-01
 0.73139E-02 0.41930E-02 0.13565E-01 0.28519     0.51034E-02 0.88213     0.56901E-02 0.34527E-02 0.20918E-01 0.45546E-01
 0.63042E-02 0.54413E-02 0.68079E-02 0.18364     0.33563E-01 0.35817E-01 0.31018     0.12052E-01 0.40666E-01 0.23486    
 0.37714E-02 0.58629E-02 0.59752E-02 0.11341E-01 0.36741E-01 0.53929E-01 0.30680     0.57660     0.38365     0.81525    
 0.18635     0.43494E-01 0.47739E-01 0.11055E-01 0.10235E-01 0.92228E-02 0.33049E-01 0.42259     0.37993     0.53280    
 0.78213     0.53893     0.71242     0.80308     0.12045     0.37354E-01 0.19348E-01 0.19484E-01 0.26244E-01 0.12073    
 0.47088     0.83752     0.70163     0.92576     0.71583     0.61192     0.48419     0.34497     0.33867     0.83416E-02
 0.41305E-01 0.75707E-01 0.74327     0.48403     0.93082     0.71790     0.91168     0.81562     0.80818     0.23407    
 0.39692     0.31106E-01 0.19979E-01 0.25849E-01 0.22212     0.78599     0.71873     0.90802     0.86470     0.76788    
 0.86245     0.54552     0.22693     0.32399     0.69806E-02 0.25633     0.39003E-01 0.63492     0.61933     0.81348    
 0.77248     0.95538     0.68616     0.87636     0.60461     0.12449     0.60858E-01 0.44439E-02 0.52906E-01 0.14990    
 0.48338     0.79410     0.86486     0.67902     0.86160     0.64786     0.37034     0.19711     0.21217E-01 0.29441E-01
 0.70222E-02 0.27467E-01 0.24643     0.26290     0.51410     0.91070     0.62544     0.66492     0.21872     0.12277    
 0.29980E-01 0.52937E-02 0.55626E-02 0.15058E-01 0.16137E-01 0.36501     0.33298     0.24884     0.53175     0.50059    
 0.15832     0.26165E-01 0.19996E-01 0.13928E-01 0.11907E-01 0.42656E-02 0.31452E-01 0.64502E-02 0.47609E-01 0.19373    
 0.22682     0.11180     0.25499E-01 0.22894E-01 0.14474E-01 0.11591E-01 0.26536E-01 0.87474E-01 0.15072E-01 0.77144E-01
 0.12404E-01 0.96159E-02 0.33177E-01 0.54349E-01 0.10065E-01 0.10672E-01 0.15107E-01 0.84999E-01 0.75231E-01 0.10956    
 0.26548     0.41006E-01 0.53822E-01 0.58663E-01 0.85566E-02 0.95993E-02 0.10307E-01 0.17333E-01 0.54560E-01 0.12720    
 0.43127     0.63616     0.59890     0.72528     0.34328     0.10942     0.64336E-01 0.17223E-01 0.16412E-01 0.15507E-01
 0.57265E-01 0.39774     0.56868     0.72795     0.83538     0.76130     0.78799     0.72976     0.23709     0.60566E-01
 0.37646E-01 0.25745E-01 0.45443E-01 0.24465     0.64511     0.85352     0.85763     0.92415     0.85858     0.79034    
 0.65018     0.38331     0.29130     0.18749E-01 0.48741E-01 0.14449     0.71165     0.74628     0.92550     0.89480    
 0.93752     0.89680     0.84776     0.47564     0.48318     0.59681E-01 0.29028E-01 0.58613E-01 0.37224     0.80440    
 0.86113     0.93638     0.93478     0.90552     0.89885     0.72429     0.46549     0.28343     0.17468E-01 0.94329E-01
 0.10303     0.67405     0.78730     0.89577     0.90675     0.94810     0.86437     0.86528     0.68029     0.24010    
 0.70128E-01 0.11585E-01 0.67644E-01 0.25135     0.64019     0.84215     0.89806     0.86408     0.89644     0.79997    
 0.56119     0.28772     0.46313E-01 0.30634E-01 0.15200E-01 0.53292E-01 0.32047     0.48859     0.71669     0.87746    
 0.79600     0.76665     0.37704     0.18801     0.50800E-01 0.12799E-01 0.12067E-01 0.22476E-01 0.36078E-01 0.29409    
 0.45012     0.48756     0.66847     0.62358     0.20912     0.57552E-01 0.33303E-01 0.22934E-01 0.20157E-01 0.11299E-01
 0.33941E-01 0.16617E-01 0.75011E-01 0.23760     0.31684     0.23418     0.45497E-01 0.34490E-01 0.24493E-01 0.24866E-01
 0.48303E-01 0.87272E-01 0.35370E-01 0.64509E-01 0.22247E-01 0.20439E-01 0.52428E-01 0.73210E-01 0.16247E-01 0.18211E-01
 0.27775E-01 0.10115     0.14854     0.22881     0.31932     0.10613     0.86968E-01 0.56265E-01 0.15665E-01 0.15754E-01
 0.15708E-01 0.25055E-01 0.83653E-01 0.23843     0.55833     0.71610     0.72466     0.75775     0.50222     0.21372    
 0.94533E-01 0.25047E-01 0.24276E-01 0.23482E-01 0.94602E-01 0.45979     0.68715     0.81826     0.87611     0.85195    
 0.84032     0.75594     0.36325     0.97458E-01 0.65531E-01 0.32689E-01 0.74615E-01 0.37791     0.73614     0.88061    
 0.90842     0.93457     0.90735     0.86070     0.73859     0.46348     0.36782     0.33949E-01 0.65562E-01 0.24250    
 0.75236     0.84524     0.93429     0.93565     0.94788     0.92513     0.88054     0.63722     0.59291     0.11037    
 0.41394E-01 0.11662     0.52137     0.84381     0.90887     0.94731     0.95069     0.93858     0.92115     0.81263    
 0.63568     0.37486     0.35610E-01 0.99145E-01 0.21158     0.74351     0.85940     0.92607     0.93881     0.95079    
 0.91639     0.88878     0.75429     0.38350     0.11072     0.24443E-01 0.11086     0.38382     0.74061     0.88020    
 0.92033     0.91624     0.91951     0.86583     0.68957     0.41242     0.99225E-01 0.46335E-01 0.31728E-01 0.10671    
 0.43955     0.64691     0.81254     0.88956     0.86290     0.82929     0.52956     0.29757     0.92951E-01 0.28286E-01
 0.25101E-01 0.39164E-01 0.75426E-01 0.37664     0.57234     0.64580     0.74740     0.71033     0.30257     0.11282    
 0.54825E-01 0.37144E-01 0.37058E-01 0.26215E-01 0.46210E-01 0.34948E-01 0.12697     0.33246     0.41617     0.36721    
 0.75807E-01 0.50916E-01 0.37454E-01 0.46733E-01 0.90646E-01 0.13689     0.76001E-01 0.81709E-01 0.35227E-01 0.36195E-01
 0.82890E-01 0.10829     0.24160E-01 0.26141E-01 0.45240E-01 0.15141     0.26579     0.37783     0.43101     0.21713    
 0.14619     0.69069E-01 0.23462E-01 0.23569E-01 0.20840E-01 0.34700E-01 0.12420     0.35385     0.65276     0.77580    
 0.79511     0.80113     0.60888     0.32519     0.13950     0.34761E-01 0.33659E-01 0.33372E-01 0.14352     0.52877    
 0.74843     0.85320     0.88990     0.88015     0.86478     0.78530     0.45935     0.14795     0.10362     0.42602E-01
 0.11555     0.47879     0.77916     0.88412     0.91140     0.92586     0.90949     0.87640     0.78064     0.53745    
 0.47709     0.53397E-01 0.97475E-01 0.33830     0.78829     0.86850     0.92283     0.92581     0.93276     0.91755    
 0.88709     0.71239     0.66925     0.18878     0.59013E-01 0.20669     0.61645     0.86667     0.91011     0.93245    
 0.93240     0.92805     0.91615     0.85039     0.72907     0.49440     0.63787E-01 0.13688     0.33588     0.79674    
 0.88279     0.92160     0.92789     0.93371     0.91694     0.89852     0.80884     0.50808     0.18316     0.45771E-01
 0.18697     0.49973     0.80422     0.89353     0.91617     0.91387     0.91633     0.88577     0.76622     0.53009    
 0.18461     0.77399E-01 0.62618E-01 0.19173     0.55384     0.73406     0.85042     0.88995     0.87713     0.85621    
 0.63681     0.41730     0.15934     0.57742E-01 0.49152E-01 0.70160E-01 0.13876     0.49527     0.65945     0.72278    
 0.78518     0.76073     0.40177     0.18826     0.90087E-01 0.62112E-01 0.68570E-01 0.55024E-01 0.71271E-01 0.63203E-01
 0.20387     0.43862     0.49792     0.47108     0.11663     0.75988E-01 0.58087E-01 0.81817E-01 0.15687     0.21887    
 0.14251     0.12244     0.54101E-01 0.57989E-01 0.12611     0.15777     0.33961E-01 0.36178E-01 0.70556E-01 0.22324    
 0.39375     0.51273     0.54086     0.34071     0.23356     0.95495E-01 0.32960E-01 0.32974E-01 0.27320E-01 0.47492E-01
 0.16810     0.43481     0.70078     0.80142     0.82495     0.81668     0.65434     0.41952     0.19254     0.47145E-01
 0.45398E-01 0.46836E-01 0.19226     0.57773     0.76593     0.84926     0.87333     0.86977     0.85901     0.78674    
 0.51211     0.20453     0.15163     0.54724E-01 0.16706     0.52977     0.78827     0.85477     0.86749     0.86993    
 0.86389     0.85198     0.79114     0.57207     0.55572     0.77769E-01 0.13579     0.41714     0.79218     0.84707    
 0.85833     0.82484     0.83299     0.85344     0.85971     0.73609     0.68975     0.29374     0.79786E-01 0.31600    
 0.65367     0.86132     0.86400     0.83285     0.79145     0.82889     0.86795     0.85164     0.77210     0.56835    
 0.10902     0.18170     0.45383     0.81133     0.87112     0.86604     0.82853     0.83236     0.86321     0.88108    
 0.83315     0.58624     0.27884     0.79484E-01 0.28325     0.57560     0.83358     0.87753     0.86873     0.85103    
 0.87109     0.87082     0.79696     0.61435     0.27976     0.13067     0.11099     0.29517     0.61862     0.77172    
 0.85013     0.86126     0.85086     0.85021     0.68990     0.50711     0.23908     0.10665     0.90224E-01 0.11962    
 0.22527     0.58486     0.68879     0.74805     0.79072     0.77479     0.47241     0.26219     0.14091     0.10487    
 0.12000     0.10400     0.11064     0.10347     0.30119     0.50855     0.54496     0.53473     0.15986     0.10880    
 0.89933E-01 0.13174     0.23665     0.30957     0.23158     0.17909     0.77553E-01 0.87273E-01 0.17722     0.20881    
 0.46921E-01 0.50400E-01 0.10289     0.29394     0.48944     0.60456     0.61075     0.44497     0.33394     0.12569    
 0.45043E-01 0.45602E-01 0.37080E-01 0.63508E-01 0.20379     0.47694     0.72260     0.81596     0.84186     0.81952    
 0.67663     0.49663     0.23106     0.61324E-01 0.60228E-01 0.63048E-01 0.22823     0.59683     0.76307     0.83298    
 0.84897     0.85004     0.84305     0.76846     0.53622     0.24982     0.20352     0.67833E-01 0.21696     0.54146    
 0.77894     0.81016     0.78726     0.76096     0.78151     0.81084     0.78370     0.56648     0.56978     0.11340    
 0.16048     0.48648     0.77496     0.80782     0.72734     0.55158     0.55966     0.72330     0.81505     0.74338    
 0.68864     0.39947     0.10732     0.39906     0.67426     0.84556     0.78150     0.55961     0.36378     0.55745    
 0.78335     0.84067     0.80133     0.59359     0.18341     0.21917     0.56501     0.81052     0.85065     0.75746    
 0.55721     0.55610     0.75698     0.85518     0.84687     0.64531     0.37373     0.13238     0.36965     0.64249    
 0.85023     0.85306     0.78445     0.72243     0.78989     0.84714     0.81090     0.67876     0.36872     0.21017    
 0.17608     0.39943     0.65544     0.79793     0.83829     0.81663     0.80678     0.83498     0.71416     0.57114    
 0.32504     0.17547     0.15335     0.19069     0.33141     0.62509     0.69065     0.75431     0.77912     0.76928    
 0.51043     0.32315     0.20468     0.16793     0.19278     0.17250     0.16334     0.16498     0.40256     0.52173    
 0.56034     0.56209     0.19459     0.14509     0.13246     0.19372     0.32157     0.40269     0.33309     0.23161    
 0.10606     0.12950     0.22071     0.24270     0.62910E-01 0.68750E-01 0.13804     0.35417     0.55730     0.66688    
 0.66062     0.53948     0.41356     0.14609     0.60829E-01 0.62455E-01 0.51361E-01 0.81916E-01 0.22612     0.48884    
 0.73192     0.82862     0.85446     0.82017     0.69655     0.54337     0.24022     0.77246E-01 0.78564E-01 0.79752E-01
 0.24475     0.59029     0.76008     0.83208     0.85068     0.85535     0.84203     0.75129     0.54605     0.26580    
 0.24009     0.84961E-01 0.24611     0.53055     0.76932     0.79613     0.76580     0.72853     0.75930     0.79925    
 0.77354     0.54301     0.53692     0.15968     0.16985     0.53693     0.75828     0.79702     0.67793     0.45213    
 0.45660     0.67625     0.79850     0.75467     0.69161     0.44071     0.13987     0.41052     0.69642     0.84468    
 0.75948     0.45640     0.23076     0.45690     0.75897     0.84295     0.82551     0.57607     0.24647     0.23128    
 0.61919     0.80887     0.85516     0.72711     0.45697     0.45123     0.72949     0.85385     0.85682     0.67081    
 0.38634     0.17406     0.37572     0.67937     0.86093     0.85312     0.75981     0.67793     0.76642     0.84952    
 0.82023     0.69882     0.39035     0.24380     0.20747     0.41972     0.66060     0.82290     0.84058     0.79988    
 0.79223     0.83700     0.72474     0.59205     0.35619     0.20837     0.18874     0.22606     0.37362     0.60584    
 0.69197     0.76321     0.76727     0.76365     0.52350     0.35572     0.24206     0.20292     0.22558     0.20401    
 0.19244     0.22199     0.44909     0.49631     0.55865     0.55956     0.21598     0.17728     0.16736     0.23008    
 0.35102     0.42776     0.36768     0.24284     0.13610     0.18074     0.23838     0.25326     0.80735E-01 0.90051E-01
 0.16836     0.38871     0.58073     0.68117     0.67585     0.59284     0.43040     0.15789     0.83267E-01 0.82351E-01
 0.73604E-01 0.10430     0.23218     0.45164     0.69528     0.80700     0.83336     0.78776     0.67536     0.51703    
 0.22933     0.98366E-01 0.10157     0.99056E-01 0.24288     0.55700     0.73964     0.82816     0.86031     0.86702    
 0.83790     0.72358     0.52820     0.25600     0.24364     0.10704     0.24656     0.49260     0.75026     0.80743    
 0.80848     0.79087     0.80366     0.81053     0.75034     0.50673     0.47028     0.18219     0.16422     0.52564    
 0.72943     0.80706     0.74765     0.63631     0.63614     0.74812     0.80546     0.74759     0.66401     0.36687    
 0.14623     0.33211     0.67766     0.84228     0.80383     0.63551     0.48517     0.63914     0.80141     0.84069    
 0.80881     0.48597     0.21792     0.19811     0.54064     0.77545     0.86600     0.79230     0.63937     0.62974    
 0.79633     0.85993     0.83412     0.60752     0.31056     0.17556     0.30467     0.62196     0.83739     0.85976    
 0.80211     0.75190     0.80753     0.85940     0.79280     0.62309     0.33816     0.24047     0.21561     0.35224    
 0.58976     0.81073     0.83767     0.80654     0.80140     0.83782     0.68782     0.51469     0.30345     0.21481    
 0.21790     0.23125     0.31077     0.50094     0.66242     0.75406     0.74450     0.74256     0.49216     0.31625    
 0.20767     0.19025     0.22811     0.21081     0.18491     0.20615     0.37826     0.43973     0.53624     0.52077    
 0.22062     0.18467     0.15787     0.19783     0.29834     0.36689     0.30554     0.19786     0.14061     0.20022    
 0.22932     0.24965     0.10200     0.11086     0.17405     0.34961     0.50546     0.60164     0.60572     0.52982    
 0.35341     0.15861     0.11015     0.10471     0.11569     0.14076     0.22282     0.34261     0.55092     0.68707    
 0.71875     0.65911     0.54141     0.39436     0.21337     0.13360     0.13703     0.13099     0.23628     0.49245    
 0.64975     0.76126     0.82152     0.82898     0.77428     0.63854     0.46055     0.24481     0.22465     0.13165    
 0.22922     0.41352     0.68510     0.78446     0.81119     0.80942     0.80975     0.78268     0.67751     0.44158    
 0.36001     0.15495     0.14005     0.41998     0.63836     0.77369     0.77983     0.75415     0.74861     0.78094    
 0.77487     0.66718     0.53296     0.23038     0.11426     0.20945     0.54637     0.78578     0.80841     0.74745    
 0.69366     0.75403     0.80561     0.77795     0.68470     0.34103     0.15600     0.15197     0.36500     0.64494    
 0.82800     0.81419     0.75424     0.74286     0.81907     0.81651     0.72047     0.47119     0.24511     0.16113    
 0.24474     0.48341     0.72093     0.81544     0.80715     0.78570     0.81053     0.81907     0.66315     0.47737    
 0.28914     0.22645     0.21015     0.29485     0.45870     0.69433     0.77044     0.77821     0.77033     0.78184    
 0.54239     0.35760     0.24545     0.20879     0.22175     0.22133     0.24438     0.34464     0.53272     0.67127    
 0.67312     0.65602     0.38853     0.21112     0.15281     0.17000     0.21788     0.20657     0.16916     0.15266    
 0.23721     0.33822     0.47526     0.43892     0.20945     0.15736     0.11518     0.14596     0.24193     0.30817    
 0.24163     0.14704     0.11077     0.16567     0.20981     0.24687     0.13610     0.12999     0.14664     0.23736    
 0.35122     0.45791     0.46954     0.36814     0.22391     0.13988     0.13419     0.13901     0.20095     0.21636    
 0.22152     0.22370     0.34304     0.45901     0.49041     0.43409     0.33355     0.25846     0.21524     0.20278    
 0.20678     0.19416     0.25715     0.42038     0.46081     0.55263     0.64220     0.64476     0.57280     0.46890    
 0.37096     0.26226     0.22048     0.17216     0.22349     0.31877     0.56160     0.66488     0.69231     0.70376    
 0.69962     0.64944     0.53763     0.36083     0.24601     0.13281     0.12855     0.28869     0.45275     0.62828    
 0.70013     0.70715     0.69481     0.69685     0.64108     0.48755     0.32994     0.15524     0.10172     0.14217    
 0.34435     0.59637     0.69014     0.69314     0.67681     0.70361     0.69330     0.57604     0.45029     0.22326    
 0.11272     0.11380     0.22775     0.42031     0.65018     0.71281     0.70401     0.68864     0.72004     0.62853    
 0.49546     0.31404     0.14197     0.85483E-01 0.14384     0.32097     0.49087     0.62629     0.69720     0.70187    
 0.69746     0.63364     0.43185     0.31612     0.16043     0.94190E-01 0.87441E-01 0.16279     0.30776     0.46334    
 0.55846     0.65516     0.62822     0.59144     0.33544     0.22947     0.14309     0.87006E-01 0.82772E-01 0.91581E-01
 0.14122     0.22395     0.33355     0.48411     0.53997     0.47327     0.26607     0.14512     0.11243     0.89793E-01
 0.89920E-01 0.86894E-01 0.90217E-01 0.11051     0.15862     0.23046     0.39485     0.34537     0.20582     0.14157    
 0.10061     0.10748     0.14236     0.16956     0.13885     0.11018     0.10008     0.14165     0.20552     0.27358    
 0.20509     0.16168     0.13050     0.16471     0.22461     0.30273     0.31503     0.23431     0.15161     0.12891    
 0.16890     0.20878     0.33194     0.34594     0.25636     0.18520     0.23090     0.25907     0.26244     0.24730    
 0.21694     0.21345     0.26405     0.31696     0.32182     0.29623     0.34911     0.39494     0.28039     0.29858    
 0.34340     0.33518     0.31274     0.30915     0.33130     0.33483     0.26606     0.25103     0.25508     0.27686    
 0.44773     0.44168     0.40717     0.41985     0.42805     0.42074     0.39116     0.32618     0.20908     0.16491    
 0.17162     0.24109     0.27517     0.39927     0.48193     0.47522     0.46148     0.46364     0.41573     0.31694    
 0.21548     0.15588     0.12956     0.14432     0.23394     0.32899     0.40549     0.46212     0.46579     0.47084    
 0.42275     0.31418     0.25303     0.14604     0.81857E-01 0.82805E-01 0.14423     0.24008     0.34984     0.42354    
 0.47262     0.45588     0.43410     0.32687     0.26759     0.15143     0.44739E-01 0.19915E-01 0.46110E-01 0.15311    
 0.26126     0.32867     0.42484     0.46943     0.42174     0.33263     0.24277     0.15128     0.36119E-01 0.75768E-02
 0.68239E-02 0.36652E-01 0.14902     0.26168     0.29623     0.44182     0.39382     0.33093     0.22428     0.14776    
 0.45327E-01 0.68211E-02 0.36746E-02 0.71285E-02 0.45021E-01 0.14544     0.22282     0.30116     0.41380     0.29511    
 0.22100     0.14737     0.81995E-01 0.20936E-01 0.69349E-02 0.69853E-02 0.21080E-01 0.79781E-01 0.15761     0.19757    
 0.35569     0.30934     0.24189     0.18458     0.12697     0.78594E-01 0.45966E-01 0.37786E-01 0.43484E-01 0.81302E-01
 0.12909     0.17858     0.24261     0.36637     0.32393     0.22256     0.17196     0.16486     0.14351     0.14610    
 0.15298     0.15018     0.15266     0.16607     0.24035     0.32086     0.43824     0.45607     0.29984     0.21645    
 0.21567     0.16812     0.14960     0.16632     0.19458     0.23907     0.33637     0.42010     0.41970     0.39188    
 0.49473     0.40837     0.20490     0.18176     0.17180     0.16260     0.18384     0.24716     0.35661     0.43020    
 0.33881     0.32804     0.29803     0.31612     0.40932     0.25499     0.18668     0.18402     0.20288     0.25292    
 0.31711     0.35452     0.23704     0.22735     0.24976     0.25545     0.20267     0.25261     0.25700     0.21144    
 0.21025     0.23624     0.25191     0.24920     0.19417     0.19330     0.17599     0.18499     0.21762     0.18423    
 0.18631     0.21406     0.20904     0.21292     0.20116     0.18452     0.16701     0.12114     0.78644E-01 0.78182E-01
 0.11679     0.16524     0.17438     0.17890     0.21474     0.20813     0.18612     0.16154     0.15283     0.80080E-01
 0.17630E-01 0.61624E-02 0.18733E-01 0.79522E-01 0.14803     0.16655     0.19782     0.24348     0.19604     0.16596    
 0.16276     0.79273E-01 0.80373E-02 0.22992E-03 0.17967E-03 0.81353E-02 0.79247E-01 0.17083     0.17418     0.27042    
 0.23704     0.19233     0.20732     0.12047     0.18139E-01 0.18333E-03 0.79773E-05 0.18723E-03 0.18184E-01 0.11952    
 0.20626     0.22314     0.36522     0.22069     0.23574     0.18846     0.78237E-01 0.64387E-02 0.17703E-03 0.21508E-03
 0.64487E-02 0.76437E-01 0.19189     0.23355     0.36139     0.35674     0.30597     0.25535     0.17192     0.76046E-01
 0.18757E-01 0.81413E-02 0.17304E-01 0.78198E-01 0.17811     0.24619     0.30499     0.48075     0.43516     0.28456    
 0.25254     0.19879     0.11675     0.78259E-01 0.81071E-01 0.12228     0.19103     0.22973     0.31905     0.40995    
 0.44606     0.44939     0.28876     0.24076     0.21709     0.15853     0.14456     0.16407     0.19394     0.24158    
 0.34091     0.43135     0.42254     0.41294     0.53193     0.35725     0.20132     0.18708     0.16194     0.15221    
 0.17789     0.24646     0.35938     0.43642     0.34527     0.32506     0.29024     0.36908     0.40422     0.22444    
 0.17773     0.17539     0.18990     0.24212     0.31324     0.36040     0.24093     0.23503     0.26157     0.23464    
 0.20314     0.26513     0.23995     0.19267     0.19877     0.22327     0.24336     0.24468     0.19450     0.19521    
 0.17827     0.19705     0.21579     0.16682     0.17832     0.20492     0.19570     0.19804     0.18969     0.17846    
 0.16185     0.12147     0.79581E-01 0.76876E-01 0.11568     0.16794     0.16225     0.16520     0.19968     0.19838    
 0.17161     0.15435     0.14670     0.76927E-01 0.16487E-01 0.59913E-02 0.17919E-01 0.74928E-01 0.14265     0.16237    
 0.18263     0.23232     0.18222     0.15896     0.16172     0.75526E-01 0.74408E-02 0.16621E-03 0.13199E-03 0.74492E-02
 0.76696E-01 0.16181     0.17460     0.24892     0.23935     0.17884     0.20745     0.11881     0.17287E-01 0.13861E-03
 0.56441E-05 0.13762E-03 0.17317E-01 0.11928     0.20832     0.21578     0.36748     0.21785     0.22446     0.19918    
 0.78018E-01 0.60177E-02 0.13330E-03 0.17605E-03 0.59529E-02 0.77651E-01 0.19019     0.25298     0.33218     0.39482    
 0.32581     0.25060     0.17539     0.78044E-01 0.17828E-01 0.71452E-02 0.16746E-01 0.78581E-01 0.18334     0.24659    
 0.32066     0.47037     0.44570     0.29345     0.26859     0.19279     0.11623     0.76721E-01 0.77525E-01 0.12031    
 0.19555     0.23470     0.32802     0.40742     0.35041     0.33580     0.23550     0.23020     0.22602     0.22423    
 0.24499     0.23943     0.20926     0.21045     0.27287     0.33933     0.32983     0.33771     0.40889     0.29391    
 0.26822     0.31510     0.30725     0.29405     0.29114     0.30361     0.32860     0.34452     0.27402     0.24811    
 0.23675     0.37663     0.42654     0.35535     0.37990     0.39893     0.38726     0.38961     0.37707     0.33325    
 0.21304     0.17540     0.19236     0.19188     0.27301     0.43239     0.44164     0.41362     0.43156     0.43059    
 0.39415     0.29671     0.21066     0.15615     0.13221     0.16518     0.22333     0.26653     0.38198     0.44035    
 0.42594     0.42420     0.39068     0.29091     0.23286     0.14430     0.80702E-01 0.77024E-01 0.13785     0.24938    
 0.30458     0.37752     0.42632     0.43426     0.38338     0.30277     0.24586     0.13777     0.37606E-01 0.17475E-01
 0.39909E-01 0.13284     0.24218     0.31657     0.37786     0.43864     0.37908     0.30813     0.23809     0.13487    
 0.30531E-01 0.46276E-02 0.45533E-02 0.30332E-01 0.13851     0.22790     0.29611     0.38684     0.40149     0.28367    
 0.21933     0.14001     0.39000E-01 0.46685E-02 0.20815E-02 0.44878E-02 0.39232E-01 0.14192     0.22104     0.27396    
 0.41400     0.27972     0.19310     0.16501     0.78796E-01 0.17012E-01 0.44839E-02 0.50199E-02 0.16791E-01 0.79551E-01
 0.15097     0.23241     0.29339     0.37212     0.27620     0.17527     0.13166     0.80632E-01 0.39989E-01 0.28732E-01
 0.38712E-01 0.79995E-01 0.13691     0.17526     0.27215     0.34889     0.34445     0.24055     0.19669     0.14959    
 0.13865     0.14006     0.13813     0.14056     0.15815     0.17528     0.25487     0.31974     0.21712     0.21103    