       N       E                     dE             d eps       ncg     rms          rms(c)
DAV:   1     0.811465454526E+02    0.81147E+02   -0.42715E+03   344   0.482E+02
DAV:   2    -0.133173966792E+02   -0.94464E+02   -0.87258E+02   476   0.127E+02
DAV:   3    -0.231857234124E+02   -0.98683E+01   -0.97630E+01   382   0.526E+01
DAV:   4    -0.233654098776E+02   -0.17969E+00   -0.17784E+00   366   0.851E+00
DAV:   5    -0.233705328361E+02   -0.51230E-02   -0.51181E-02   392   0.137E+00    0.691E+00
RMM:   6    -0.222099056455E+02    0.11606E+01   -0.54094E+00   293   0.116E+01    0.263E+00
RMM:   7    -0.218288687242E+02    0.38104E+00   -0.58348E-01   294   0.334E+00    0.155E+00
RMM:   8    -0.217678184681E+02    0.61050E-01   -0.23539E-01   306   0.247E+00    0.347E-01
RMM:   9    -0.217631457350E+02    0.46727E-02   -0.83868E-03   334   0.550E-01    0.914E-02
RMM:  10    -0.217624785798E+02    0.66716E-03   -0.15215E-03   336   0.203E-01    0.428E-02
RMM:  11    -0.217624103134E+02    0.68266E-04   -0.14862E-03   321   0.169E-01    0.474E-02
RMM:  12    -0.217623313238E+02    0.78990E-04   -0.42068E-04   309   0.110E-01    0.144E-02
RMM:  13    -0.217627639666E+02   -0.43264E-03   -0.13834E-04   308   0.582E-02    0.172E-02
RMM:  14    -0.217628531524E+02   -0.89186E-04   -0.25703E-05   327   0.246E-02    0.492E-03
RMM:  15    -0.217630144914E+02   -0.16134E-03   -0.17803E-05   283   0.155E-02    0.372E-03
RMM:  16    -0.217630564250E+02   -0.41934E-04   -0.28286E-06   240   0.674E-03    0.224E-03
RMM:  17    -0.217630951725E+02   -0.38748E-04   -0.19515E-06   205   0.644E-03    0.198E-03
RMM:  18    -0.217630978528E+02   -0.26803E-05   -0.18846E-07   157   0.264E-03    0.166E-03
RMM:  19    -0.217631031629E+02   -0.53101E-05   -0.47409E-07   178   0.329E-03    0.161E-03
RMM:  20    -0.217631041147E+02   -0.95186E-06   -0.82691E-08   132   0.178E-03
   1 F= -.22353803E+02 E0= -.22353803E+02  d E =-.660591E-10
