 vasp.5.4.4.18Apr17-6-g9f103f2a35 (build Jun 30 2017 11:15:00) complex          
  
 executed on    STALLO_VASP_5.4.4 date 2019.11.08  11:48:46
 running on    4 total cores
 distrk:  each k-point on    4 cores,    1 groups
 distr:  one band on NCORES_PER_BAND=   2 cores,    2 groups


--------------------------------------------------------------------------------------------------------


 INCAR:
 POTCAR:   PAW_PBE Mo 08Apr2002                   
 POTCAR:    PAW_PBE S 17Jan2003                   
 POTCAR:   PAW_PBE Mo 08Apr2002                   
   VRHFIN =Mo: 4p5s4d                                                           
   LEXCH  = PE                                                                  
   EATOM  =   217.5180 eV,   15.9871 Ry                                         
                                                                                
   TITEL  = PAW_PBE Mo 08Apr2002                                                
   LULTRA =        F    use ultrasoft PP ?                                      
   IUNSCR =        1    unscreen: 0-lin 1-nonlin 2-no                           
   RPACOR =    2.200    partial core radius                                     
   POMASS =   95.940; ZVAL   =    6.000    mass and valenz                      
   RCORE  =    2.750    outmost cutoff radius                                   
   RWIGS  =    2.750; RWIGS  =    1.455    wigner-seitz radius (au A)           
   ENMAX  =  224.584; ENMIN  =  168.438 eV                                      
   RCLOC  =    2.111    cutoff for local pot                                    
   LCOR   =        T    correct aug charges                                     
   LPAW   =        T    paw PP                                                  
   EAUG   =  345.278                                                            
   DEXC   =    -.088                                                            
   RMAX   =    3.077    core radius for proj-oper                               
   RAUG   =    1.300    factor for augmentation sphere                          
   RDEP   =    2.815    radius for radial grids                                 
   QCUT   =   -4.063; QGAM   =    8.126    optimization parameters              
                                                                                
   Description                                                                  
     l     E      TYP  RCUT    TYP  RCUT                                        
     2   .000     23  2.500                                                     
     2   .000     23  2.500                                                     
     0   .000     23  2.600                                                     
     0  1.000     23  2.600                                                     
     1   .400     23  2.750                                                     
     1  2.000     23  2.750                                                     
     3   .000      7   .000                                                     
  local pseudopotential read in
  partial core-charges read in
  atomic valenz-charges read in
  non local Contribution for L=           2  read in
    real space projection operators read in
  non local Contribution for L=           2  read in
    real space projection operators read in
  non local Contribution for L=           0  read in
    real space projection operators read in
  non local Contribution for L=           0  read in
    real space projection operators read in
  non local Contribution for L=           1  read in
    real space projection operators read in
  non local Contribution for L=           1  read in
    real space projection operators read in
    PAW grid and wavefunctions read in
 
   number of l-projection  operators is LMAX  =           6
   number of lm-projection operators is LMMAX =          18
 
 POTCAR:    PAW_PBE S 17Jan2003                   
   VRHFIN =S : s2p4                                                             
   LEXCH  = PE                                                                  
   EATOM  =   276.8230 eV,   20.3459 Ry                                         
                                                                                
   TITEL  = PAW_PBE S 17Jan2003                                                 
   LULTRA =        F    use ultrasoft PP ?                                      
   IUNSCR =        1    unscreen: 0-lin 1-nonlin 2-no                           
   RPACOR =    1.500    partial core radius                                     
   POMASS =   32.066; ZVAL   =    6.000    mass and valenz                      
   RCORE  =    1.900    outmost cutoff radius                                   
   RWIGS  =    2.200; RWIGS  =    1.164    wigner-seitz radius (au A)           
   ENMAX  =  280.000; ENMIN  =  194.016 eV                                      
   ICORE  =        2    local potential                                         
   LCOR   =        T    correct aug charges                                     
   LPAW   =        T    paw PP                                                  
   EAUG   =  335.092                                                            
   DEXC   =     .000                                                            
   RMAX   =    2.867    core radius for proj-oper                               
   RAUG   =    1.300    factor for augmentation sphere                          
   RDEP   =    1.954    radius for radial grids                                 
   QCUT   =   -4.360; QGAM   =    8.721    optimization parameters              
                                                                                
   Description                                                                  
     l     E      TYP  RCUT    TYP  RCUT                                        
     0   .000     23  1.900                                                     
     0   .000     23  1.900                                                     
     1   .000     23  1.900                                                     
     1   .000     23  1.900                                                     
     2   .000     23  1.900                                                     
  local pseudopotential read in
  partial core-charges read in
  atomic valenz-charges read in
  non local Contribution for L=           0  read in
    real space projection operators read in
  non local Contribution for L=           0  read in
    real space projection operators read in
  non local Contribution for L=           1  read in
    real space projection operators read in
  non local Contribution for L=           1  read in
    real space projection operators read in
    PAW grid and wavefunctions read in
 
   number of l-projection  operators is LMAX  =           4
   number of lm-projection operators is LMMAX =           8
 

 ----------------------------------------------------------------------------- 
|                                                                             |
|  ADVICE TO THIS USER RUNNING 'VASP/VAMP'   (HEAR YOUR MASTER'S VOICE ...):  |
|                                                                             |
|      You have a (more or less) 'small supercell' and for smaller cells      |
|      it is recommended  to use the reciprocal-space projection scheme!      |
|      The real space optimization is not  efficient for small cells and it   |
|      is also less accurate ...                                              |
|      Therefore set LREAL=.FALSE. in the  INCAR file                         |
|                                                                             |
 ----------------------------------------------------------------------------- 

 Optimization of the real space projectors (new method)

 maximal supplied QI-value         = 13.61
 optimisation between [QCUT,QGAM] = [  8.03, 16.19] = [ 18.05, 73.41] Ry 
 Optimized for a Real-space Cutoff    1.97 Angstroem

   l    n(q)    QCUT    max X(q) W(low)/X(q) W(high)/X(q)  e(spline) 
   2      9     8.028     3.671    0.48E-05    0.25E-04    0.70E-07
   2      9     8.028    25.193    0.26E-03    0.70E-03    0.27E-06
   0     10     8.028    26.379    0.19E-04    0.25E-05    0.73E-08
   0     10     8.028    49.709    0.28E-04    0.49E-04    0.74E-07
   1      9     8.028     7.852    0.15E-04    0.15E-05    0.29E-07
   1      9     8.028    10.693    0.92E-04    0.27E-04    0.86E-07
 Optimization of the real space projectors (new method)

 maximal supplied QI-value         = 19.84
 optimisation between [QCUT,QGAM] = [  7.94, 16.07] = [ 17.64, 72.34] Ry 
 Optimized for a Real-space Cutoff    1.55 Angstroem

   l    n(q)    QCUT    max X(q) W(low)/X(q) W(high)/X(q)  e(spline) 
   0      7     7.937     5.487    0.27E-04    0.20E-04    0.12E-07
   0      7     7.937    85.627    0.10E-03    0.36E-03    0.16E-06
   1      7     7.937     3.530    0.15E-04    0.55E-04    0.56E-07
   1      7     7.937    42.714    0.49E-03    0.85E-03    0.12E-06
 PAW_PBE Mo 08Apr2002                   :
 energy of atom  1       EATOM= -217.5180
 kinetic energy error for atom=    0.0235 (will be added to EATOM!!)
  PAW_PBE S 17Jan2003                   :
 energy of atom  2       EATOM= -276.8230
 kinetic energy error for atom=    0.0359 (will be added to EATOM!!)
 
 
 POSCAR: MoS2_mp-2815_computed                   
  positions in cartesian coordinates
  velocities in cartesian coordinates
  No initial velocities read in
 exchange correlation table for  LEXCH =        8
   RHO(1)=    0.500       N(1)  =     2000
   RHO(2)=  100.500       N(2)  =     4000
 


--------------------------------------------------------------------------------------------------------


 ion  position               nearest neighbor table
   1  0.333  0.667  0.091-   3 2.42   2 2.42   2 2.42   3 2.42   3 2.42   2 2.42
   2  0.667  0.333  0.053-   1 2.42   1 2.42   1 2.42
   3  0.667  0.333  0.129-   1 2.42   1 2.42   1 2.42
 
  LATTYP: Found a hexagonal cell.
 ALAT       =     3.1903157300
 C/A-ratio  =    12.8134666784
  
  Lattice vectors:
  
 A1 = (   3.1903157300,   0.0000000000,   0.0000000000)
 A2 = (  -1.5951578650,   2.7628944683,   0.0000000000)
 A3 = (   0.0000000000,   0.0000000000,  40.8790043000)


Analysis of symmetry for initial positions (statically):
=====================================================================
 Subroutine PRICEL returns:
 Original cell was already a primitive cell.
 

 Routine SETGRP: Setting up the symmetry group for a 
 hexagonal supercell.


 Subroutine GETGRP returns: Found 12 space group operations
 (whereof  6 operations were pure point group operations)
 out of a pool of 24 trial point group operations.


The static configuration has the point symmetry C_3v.
 The point group associated with its full space group is D_3h.


Analysis of symmetry for dynamics (positions and initial velocities):
=====================================================================
 Subroutine PRICEL returns:
 Original cell was already a primitive cell.
 

 Routine SETGRP: Setting up the symmetry group for a 
 hexagonal supercell.


 Subroutine GETGRP returns: Found 12 space group operations
 (whereof  6 operations were pure point group operations)
 out of a pool of 24 trial point group operations.


The dynamic configuration has the point symmetry C_3v.
 The point group associated with its full space group is D_3h.


 Subroutine INISYM returns: Found 12 space group operations
 (whereof  6 operations are pure point group operations),
 and found     1 'primitive' translations

 
 
 KPOINTS: k-density: 4.0                          

Automatic generation of k-mesh.
Space group operators:
 irot       det(A)        alpha          n_x          n_y          n_z        tau_x        tau_y        tau_z
    1     1.000000     0.000000     1.000000     0.000000     0.000000     0.000000     0.000000     0.000000
    2     1.000000   120.000000     0.000000     0.000000    -1.000000     0.000000     0.000000     0.000000
    3     1.000000   120.000000     0.000000     0.000000     1.000000     0.000000     0.000000     0.000000
    4    -1.000000   180.000000     1.000000    -0.000000     0.000000     0.000000     0.000000     0.000000
    5    -1.000000   179.999999     0.500000    -0.866025     0.000000     0.000000     0.000000     0.000000
    6    -1.000000   180.000000    -0.500000    -0.866025     0.000000     0.000000     0.000000     0.000000
    7    -1.000000    60.000000     0.000000     0.000000    -1.000000     0.000000     0.000000     0.181988
    8    -1.000000   180.000000     0.000000     0.000000     1.000000     0.000000     0.000000     0.181988
    9    -1.000000    60.000000     0.000000     0.000000     1.000000     0.000000     0.000001     0.181988
   10     1.000000   180.000000     0.866025    -0.500000     0.000000     0.000000     0.000000     0.181988
   11     1.000000   180.000000     0.000000     1.000000     0.000000     0.000000     0.000000     0.181988
   12     1.000000   180.000000     0.866025     0.500000     0.000000     0.000000     0.000001     0.181988
 
 Subroutine IBZKPT returns following result:
 ===========================================
 
 Found     10 irreducible k-points:
 
 Following reciprocal coordinates:
            Coordinates               Weight
  0.000000  0.000000  0.000000      1.000000
  0.125000  0.000000  0.000000      6.000000
  0.250000  0.000000  0.000000      6.000000
  0.375000 -0.000000  0.000000      6.000000
  0.500000  0.000000  0.000000      3.000000
  0.125000  0.125000  0.000000      6.000000
  0.250000  0.125000  0.000000     12.000000
  0.375000  0.125000  0.000000     12.000000
  0.250000  0.250000  0.000000      6.000000
  0.375000  0.250000  0.000000      6.000000
 
 Following cartesian coordinates:
            Coordinates               Weight
  0.000000  0.000000  0.000000      1.000000
  0.039181  0.022621  0.000000      6.000000
  0.078362  0.045242  0.000000      6.000000
  0.117543  0.067864  0.000000      6.000000
  0.156724  0.090485  0.000000      3.000000
  0.039181  0.067864  0.000000      6.000000
  0.078362  0.090485  0.000000     12.000000
  0.117543  0.113106  0.000000     12.000000
  0.078362  0.135727  0.000000      6.000000
  0.117543  0.158348  0.000000      6.000000
 


--------------------------------------------------------------------------------------------------------




 Dimension of arrays:
   k-points           NKPTS =     10   k-points in BZ     NKDIM =     10   number of bands    NBANDS=     14
   number of dos      NEDOS =   2401   number of ions     NIONS =      3
   non local maximal  LDIM  =      6   non local SUM 2l+1 LMDIM =     18
   total plane-waves  NPLWV =  23040
   max r-space proj   IRMAX =   2083   max aug-charges    IRDMAX=   4304
   dimension x,y,z NGX =    12 NGY =   12 NGZ =  160
   dimension x,y,z NGXF=    24 NGYF=   24 NGZF=  320
   support grid    NGXF=    24 NGYF=   24 NGZF=  320
   ions per type =               1   2
   NGX,Y,Z   is equivalent  to a cutoff of   6.25,  6.25,  6.51 a.u.
   NGXF,Y,Z  is equivalent  to a cutoff of  12.51, 12.51, 13.01 a.u.

 SYSTEM =  unknown system                          
 POSCAR =  MoS2_mp-2815_computed                   

 Startparameter for this run:
   NWRITE =      2    write-flag & timer
   PREC   = normal    normal or accurate (medium, high low for compatibility)
   ISTART =      0    job   : 0-new  1-cont  2-samecut
   ICHARG =      2    charge: 1-file 2-atom 10-const
   ISPIN  =      1    spin polarized calculation?
   LNONCOLLINEAR =      F non collinear calculations
   LSORBIT =      F    spin-orbit coupling
   INIWAV =      1    electr: 0-lowe 1-rand  2-diag
   LASPH  =      F    aspherical Exc in radial PAW
   METAGGA=      F    non-selfconsistent MetaGGA calc.

 Electronic Relaxation 1
   ENCUT  =  250.0 eV  18.37 Ry    4.29 a.u.   4.11  4.11 52.70*2*pi/ulx,y,z
   ENINI  =  250.0     initial cutoff
   ENAUG  =  345.3 eV  augmentation charge cutoff
   NELM   =     60;   NELMIN=  4; NELMDL= -5     # of ELM steps 
   EDIFF  = 0.1E-05   stopping-criterion for ELM
   LREAL  =      T    real-space projection
   NLSPLINE    = F    spline interpolate recip. space projectors
   LCOMPAT=      F    compatible to vasp.4.4
   GGA_COMPAT  = T    GGA compatible to vasp.4.4-vasp.4.6
   LMAXPAW     = -100 max onsite density
   LMAXMIX     =    2 max onsite mixed and CHGCAR
   VOSKOWN=      0    Vosko Wilk Nusair interpolation
   ROPT   =   -0.00050  -0.00050
 Ionic relaxation
   EDIFFG = 0.1E-04   stopping-criterion for IOM
   NSW    =      0    number of steps for IOM
   NBLOCK =      1;   KBLOCK =      1    inner block; outer block 
   IBRION =     -1    ionic relax: 0-MD 1-quasi-New 2-CG
   NFREE  =      0    steps in history (QN), initial steepest desc. (CG)
   ISIF   =      2    stress and relaxation
   IWAVPR =     10    prediction:  0-non 1-charg 2-wave 3-comb
   ISYM   =      2    0-nonsym 1-usesym 2-fastsym
   LCORR  =      T    Harris-Foulkes like correction to forces

   POTIM  = 0.5000    time-step for ionic-motion
   TEIN   =    0.0    initial temperature
   TEBEG  =    0.0;   TEEND  =   0.0 temperature during run
   SMASS  =  -3.00    Nose mass-parameter (am)
   estimated Nose-frequenzy (Omega)   =  0.10E-29 period in steps =****** mass=  -0.233E-27a.u.
   SCALEE = 1.0000    scale energy and forces
   NPACO  =    256;   APACO  = 16.0  distance and # of slots for P.C.
   PSTRESS=    0.0 pullay stress

  Mass of Ions in am
   POMASS =  95.94 32.07
  Ionic Valenz
   ZVAL   =   6.00  6.00
  Atomic Wigner-Seitz radii
   RWIGS  =  -1.00 -1.00
  virtual crystal weights 
   VCA    =   1.00  1.00
   NELECT =      18.0000    total number of electrons
   NUPDOWN=      -1.0000    fix difference up-down

 DOS related values:
   EMIN   = -12.00;   EMAX   = 12.00  energy-range for DOS
   EFERMI =   0.00
   ISMEAR =     0;   SIGMA  =   0.20  broadening in eV -4-tet -1-fermi 0-gaus

 Electronic relaxation 2 (details)
   IALGO  =     68    algorithm
   LDIAG  =      T    sub-space diagonalisation (order eigenvalues)
   LSUBROT=      F    optimize rotation matrix (better conditioning)
   TURBO    =      0    0=normal 1=particle mesh
   IRESTART =      0    0=no restart 2=restart with 2 vectors
   NREBOOT  =      0    no. of reboots
   NMIN     =      0    reboot dimension
   EREF     =   0.00    reference energy to select bands
   IMIX   =      4    mixing-type and parameters
     AMIX     =   0.40;   BMIX     =  1.00
     AMIX_MAG =   1.60;   BMIX_MAG =  1.00
     AMIN     =   0.10
     WC   =   100.;   INIMIX=   1;  MIXPRE=   1;  MAXMIX= -45

 Intra band minimization:
   WEIMIN = 0.0000     energy-eigenvalue tresh-hold
   EBREAK =  0.18E-07  absolut break condition
   DEPER  =   0.30     relativ break condition  

   TIME   =   0.40     timestep for ELM

  volume/ion in A,a.u.               =     120.11       810.54
  Fermi-wavevector in a.u.,A,eV,Ry     =   0.602929  1.139371  4.946037  0.363523
  Thomas-Fermi vector in A             =   1.655720
 
 Write flags
   LWAVE        =      F    write WAVECAR
   LDOWNSAMPLE  =      F    k-point downsampling of WAVECAR
   LCHARG       =      T    write CHGCAR
   LVTOT        =      F    write LOCPOT, total local potential
   LVHAR        =      F    write LOCPOT, Hartree potential only
   LELF         =      T    write electronic localiz. function (ELF)
   LORBIT       =     11    0 simple, 1 ext, 2 COOP (PROOUT), +10 PAW based schemes


 Dipole corrections
   LMONO  =      F    monopole corrections only (constant potential shift)
   LDIPOL =      F    correct potential (dipole corrections)
   IDIPOL =      0    1-x, 2-y, 3-z, 4-all directions 
   EPSILON=  1.0000000 bulk dielectric constant

 Exchange correlation treatment:
   GGA     =    --    GGA type
   LEXCH   =     8    internal setting for exchange type
   VOSKOWN=      0    Vosko Wilk Nusair interpolation
   LHFCALC =     F    Hartree Fock is set to
   LHFONE  =     F    Hartree Fock one center treatment
   AEXX    =    0.0000 exact exchange contribution

 Linear response parameters
   LEPSILON=     F    determine dielectric tensor
   LRPA    =     F    only Hartree local field effects (RPA)
   LNABLA  =     F    use nabla operator in PAW spheres
   LVEL    =     F    velocity operator in full k-point grid
   LINTERFAST=   F  fast interpolation
   KINTER  =     0    interpolate to denser k-point grid
   CSHIFT  =0.1000    complex shift for real part using Kramers Kronig
   OMEGAMAX=  -1.0    maximum frequency
   DEG_THRESHOLD= 0.2000000E-02 threshold for treating states as degnerate
   RTIME   =   -0.100 relaxation time in fs
  (WPLASMAI=    0.000 imaginary part of plasma frequency in eV, 0.658/RTIME)
   DFIELD  = 0.0000000 0.0000000 0.0000000 field for delta impulse in time
 
 Orbital magnetization related:
   ORBITALMAG=     F  switch on orbital magnetization
   LCHIMAG   =     F  perturbation theory with respect to B field
   DQ        =  0.001000  dq finite difference perturbation B field
   LLRAUG    =     F  two centre corrections for induced B field



--------------------------------------------------------------------------------------------------------


 Static calculation
 charge density and potential will be updated during run
 non-spin polarized calculation
 RMM-DIIS sequential band-by-band and
  variant of blocked Davidson during initial phase
 perform sub-space diagonalisation
    before iterative eigenvector-optimisation
 modified Broyden-mixing scheme, WC =      100.0
 initial mixing is a Kerker type mixing with AMIX =  0.4000 and BMIX =      1.0000
 Hartree-type preconditioning will be used
 using additional bands            5
 real space projection scheme for non local part
 use partial core corrections
 calculate Harris-corrections to forces 
   (improved forces if not selfconsistent)
 use gradient corrections 
 use of overlap-Matrix (Vanderbilt PP)
 Gauss-broadening in eV      SIGMA  =   0.20


--------------------------------------------------------------------------------------------------------


  energy-cutoff  :      250.00
  volume of cell :      360.33
      direct lattice vectors                 reciprocal lattice vectors
     3.190315730  0.000000000  0.000000000     0.313448600  0.180969634  0.000000000
    -1.595157865  2.762894468  0.000000000     0.000000000  0.361939267  0.000000000
     0.000000000  0.000000000 40.879004300     0.000000000  0.000000000  0.024462435

  length of vectors
     3.190315730  3.190315730 40.879004300     0.361939267  0.361939267  0.024462435


 
 k-points in units of 2pi/SCALE and weight: k-density: 4.0                          
   0.00000000  0.00000000  0.00000000       0.016
   0.03918108  0.02262120  0.00000000       0.094
   0.07836215  0.04524241  0.00000000       0.094
   0.11754323  0.06786361  0.00000000       0.094
   0.15672430  0.09048482  0.00000000       0.047
   0.03918108  0.06786361  0.00000000       0.094
   0.07836215  0.09048482  0.00000000       0.188
   0.11754323  0.11310602  0.00000000       0.188
   0.07836215  0.13572723  0.00000000       0.094
   0.11754323  0.15834843  0.00000000       0.094
 
 k-points in reciprocal lattice and weights: k-density: 4.0                          
   0.00000000  0.00000000  0.00000000       0.016
   0.12500000  0.00000000  0.00000000       0.094
   0.25000000  0.00000000  0.00000000       0.094
   0.37500000 -0.00000000  0.00000000       0.094
   0.50000000  0.00000000  0.00000000       0.047
   0.12500000  0.12500000  0.00000000       0.094
   0.25000000  0.12500000  0.00000000       0.188
   0.37500000  0.12500000  0.00000000       0.188
   0.25000000  0.25000000  0.00000000       0.094
   0.37500000  0.25000000  0.00000000       0.094
 
 position of ions in fractional coordinates (direct lattice) 
   0.33333300  0.66666700  0.09099417
   0.66666700  0.33333300  0.05271329
   0.66666600  0.33333300  0.12927505
 
 position of ions in cartesian coordinates  (Angst):
  -0.00000160  1.84193057  3.71975108
   1.59515946  0.92096390  2.15486668
   1.59515627  0.92096390  5.28463547
 


--------------------------------------------------------------------------------------------------------


 k-point  1 :   0.0000 0.0000 0.0000  plane waves:    3135
 k-point  2 :   0.1250 0.0000 0.0000  plane waves:    3167
 k-point  3 :   0.2500 0.0000 0.0000  plane waves:    3225
 k-point  4 :   0.3750-0.0000 0.0000  plane waves:    3261
 k-point  5 :   0.5000 0.0000 0.0000  plane waves:    3272
 k-point  6 :   0.1250 0.1250 0.0000  plane waves:    3194
 k-point  7 :   0.2500 0.1250 0.0000  plane waves:    3237
 k-point  8 :   0.3750 0.1250 0.0000  plane waves:    3245
 k-point  9 :   0.2500 0.2500 0.0000  plane waves:    3252
 k-point 10 :   0.3750 0.2500 0.0000  plane waves:    3258

 maximum and minimum number of plane-waves per node :      1644     1560

 maximum number of plane-waves:      3272
 maximum index in each direction: 
   IXMAX=    4   IYMAX=    4   IZMAX=   52
   IXMIN=   -4   IYMIN=   -4   IZMIN=  -52


 real space projection operators:
  total allocation   :        398.06 KBytes
  max/ min on nodes  :        200.06        198.00


 parallel 3D FFT for wavefunctions:
    minimum data exchange during FFTs selected (reduces bandwidth)
 parallel 3D FFT for charge:
    minimum data exchange during FFTs selected (reduces bandwidth)


 total amount of memory used by VASP MPI-rank0    37204. kBytes
=======================================================================

   base      :      30000. kBytes
   nonlr-proj:        345. kBytes
   fftplans  :       1905. kBytes
   grid      :       3053. kBytes
   one-center:         31. kBytes
   wavefun   :       1870. kBytes
 
     INWAV:  cpu time    0.0000: real time    0.0004
 Broyden mixing: mesh for mixing (old mesh)
   NGX =  9   NGY =  9   NGZ =105
  (NGX  = 24   NGY  = 24   NGZ  =320)
  gives a total of   8505 points

 initial charge density was supplied:
 charge density of overlapping atoms calculated
 number of electron      18.0000000 magnetization 
 keeping initial charge density in first step


--------------------------------------------------------------------------------------------------------


 Maximum index for non-local projection operator          968
 Maximum index for augmentation-charges         1015 (set IRDMAX)


--------------------------------------------------------------------------------------------------------


 First call to EWALD:  gamma=   0.249
 Maximum number of real-space cells 6x 6x 1
 Maximum number of reciprocal cells 2x 2x13

    FEWALD:  cpu time    0.0010: real time    0.0015


--------------------------------------- Iteration      1(   1)  ---------------------------------------


    POTLOK:  cpu time    0.0260: real time    0.0435
    SETDIJ:  cpu time    0.0020: real time    0.0029
     EDDAV:  cpu time    0.1600: real time    0.1642
       DOS:  cpu time    0.0020: real time    0.0019
    --------------------------------------------
      LOOP:  cpu time    0.1900: real time    0.2124

 eigenvalue-minimisations  :   344
 total energy-change (2. order) : 0.8114655E+02  (-0.4271486E+03)
 number of electron      18.0000000 magnetization 
 augmentation part       18.0000000 magnetization 

 Free energy of the ion-electron system (eV)
  ---------------------------------------------------
  alpha Z        PSCENC =         8.22821845
  Ewald energy   TEWEN  =      8097.06046244
  -Hartree energ DENC   =     -8757.59954085
  -exchange      EXHF   =         0.00000000
  -V(xc)+E(xc)   XCENC  =       -36.31055806
  PAW double counting   =       406.88651198     -329.34073203
  entropy T*S    EENTRO =        -0.03175641
  eigenvalues    EBANDS =       -78.81463582
  atomic energy  EATOM  =       771.06857575
  Solvation  Ediel_sol  =         0.00000000
  ---------------------------------------------------
  free energy    TOTEN  =        81.14654545 eV

  energy without entropy =       81.17830186  energy(sigma->0) =       81.16242366


--------------------------------------------------------------------------------------------------------




--------------------------------------- Iteration      1(   2)  ---------------------------------------


     EDDAV:  cpu time    0.2050: real time    0.2062
       DOS:  cpu time    0.0020: real time    0.0017
    --------------------------------------------
      LOOP:  cpu time    0.2070: real time    0.2080

 eigenvalue-minimisations  :   476
 total energy-change (2. order) :-0.9446394E+02  (-0.8725806E+02)
 number of electron      18.0000000 magnetization 
 augmentation part       18.0000000 magnetization 

 Free energy of the ion-electron system (eV)
  ---------------------------------------------------
  alpha Z        PSCENC =         8.22821845
  Ewald energy   TEWEN  =      8097.06046244
  -Hartree energ DENC   =     -8757.59954085
  -exchange      EXHF   =         0.00000000
  -V(xc)+E(xc)   XCENC  =       -36.31055806
  PAW double counting   =       406.88651198     -329.34073203
  entropy T*S    EENTRO =        -0.00000000
  eigenvalues    EBANDS =      -173.31033436
  atomic energy  EATOM  =       771.06857575
  Solvation  Ediel_sol  =         0.00000000
  ---------------------------------------------------
  free energy    TOTEN  =       -13.31739668 eV

  energy without entropy =      -13.31739668  energy(sigma->0) =      -13.31739668


--------------------------------------------------------------------------------------------------------




--------------------------------------- Iteration      1(   3)  ---------------------------------------


     EDDAV:  cpu time    0.1690: real time    0.1699
       DOS:  cpu time    0.0020: real time    0.0018
    --------------------------------------------
      LOOP:  cpu time    0.1710: real time    0.1717

 eigenvalue-minimisations  :   382
 total energy-change (2. order) :-0.9868327E+01  (-0.9762959E+01)
 number of electron      18.0000000 magnetization 
 augmentation part       18.0000000 magnetization 

 Free energy of the ion-electron system (eV)
  ---------------------------------------------------
  alpha Z        PSCENC =         8.22821845
  Ewald energy   TEWEN  =      8097.06046244
  -Hartree energ DENC   =     -8757.59954085
  -exchange      EXHF   =         0.00000000
  -V(xc)+E(xc)   XCENC  =       -36.31055806
  PAW double counting   =       406.88651198     -329.34073203
  entropy T*S    EENTRO =        -0.00000000
  eigenvalues    EBANDS =      -183.17866109
  atomic energy  EATOM  =       771.06857575
  Solvation  Ediel_sol  =         0.00000000
  ---------------------------------------------------
  free energy    TOTEN  =       -23.18572341 eV

  energy without entropy =      -23.18572341  energy(sigma->0) =      -23.18572341


--------------------------------------------------------------------------------------------------------




--------------------------------------- Iteration      1(   4)  ---------------------------------------


     EDDAV:  cpu time    0.1620: real time    0.1627
       DOS:  cpu time    0.0020: real time    0.0017
    --------------------------------------------
      LOOP:  cpu time    0.1640: real time    0.1644

 eigenvalue-minimisations  :   366
 total energy-change (2. order) :-0.1796865E+00  (-0.1778385E+00)
 number of electron      18.0000000 magnetization 
 augmentation part       18.0000000 magnetization 

 Free energy of the ion-electron system (eV)
  ---------------------------------------------------
  alpha Z        PSCENC =         8.22821845
  Ewald energy   TEWEN  =      8097.06046244
  -Hartree energ DENC   =     -8757.59954085
  -exchange      EXHF   =         0.00000000
  -V(xc)+E(xc)   XCENC  =       -36.31055806
  PAW double counting   =       406.88651198     -329.34073203
  entropy T*S    EENTRO =        -0.00000000
  eigenvalues    EBANDS =      -183.35834755
  atomic energy  EATOM  =       771.06857575
  Solvation  Ediel_sol  =         0.00000000
  ---------------------------------------------------
  free energy    TOTEN  =       -23.36540988 eV

  energy without entropy =      -23.36540988  energy(sigma->0) =      -23.36540988


--------------------------------------------------------------------------------------------------------




--------------------------------------- Iteration      1(   5)  ---------------------------------------


     EDDAV:  cpu time    0.1720: real time    0.1726
       DOS:  cpu time    0.0020: real time    0.0017
    CHARGE:  cpu time    0.0110: real time    0.0116
    MIXING:  cpu time    0.0010: real time    0.0010
    --------------------------------------------
      LOOP:  cpu time    0.1860: real time    0.1870

 eigenvalue-minimisations  :   392
 total energy-change (2. order) :-0.5122958E-02  (-0.5118115E-02)
 number of electron      17.9999946 magnetization 
 augmentation part       -0.9517771 magnetization 

 Broyden mixing:
  rms(total) = 0.69120E+00    rms(broyden)= 0.69101E+00
  rms(prec ) = 0.71621E+00
  weight for this iteration     100.00

 Free energy of the ion-electron system (eV)
  ---------------------------------------------------
  alpha Z        PSCENC =         8.22821845
  Ewald energy   TEWEN  =      8097.06046244
  -Hartree energ DENC   =     -8757.59954085
  -exchange      EXHF   =         0.00000000
  -V(xc)+E(xc)   XCENC  =       -36.31055806
  PAW double counting   =       406.88651198     -329.34073203
  entropy T*S    EENTRO =        -0.00000000
  eigenvalues    EBANDS =      -183.36347051
  atomic energy  EATOM  =       771.06857575
  Solvation  Ediel_sol  =         0.00000000
  ---------------------------------------------------
  free energy    TOTEN  =       -23.37053284 eV

  energy without entropy =      -23.37053284  energy(sigma->0) =      -23.37053284


--------------------------------------------------------------------------------------------------------




--------------------------------------- Iteration      1(   6)  ---------------------------------------


    POTLOK:  cpu time    0.0210: real time    0.0244
    SETDIJ:  cpu time    0.0030: real time    0.0020
    EDDIAG:  cpu time    0.0260: real time    0.0269
  RMM-DIIS:  cpu time    0.0900: real time    0.0891
    ORTHCH:  cpu time    0.0020: real time    0.0030
       DOS:  cpu time    0.0020: real time    0.0017
    CHARGE:  cpu time    0.0110: real time    0.0113
    MIXING:  cpu time    0.0010: real time    0.0012
    --------------------------------------------
      LOOP:  cpu time    0.1560: real time    0.1597

 eigenvalue-minimisations  :   293
 total energy-change (2. order) : 0.1160627E+01  (-0.5409354E+00)
 number of electron      17.9999947 magnetization 
 augmentation part       -0.4085029 magnetization 

 Broyden mixing:
  rms(total) = 0.26277E+00    rms(broyden)= 0.26256E+00
  rms(prec ) = 0.28315E+00
  weight for this iteration     100.00

 eigenvalues of (default mixing * dielectric matrix)
  average eigenvalue GAMMA=   0.8357
  0.8357

 Free energy of the ion-electron system (eV)
  ---------------------------------------------------
  alpha Z        PSCENC =         8.22821845
  Ewald energy   TEWEN  =      8097.06046244
  -Hartree energ DENC   =     -8755.72224700
  -exchange      EXHF   =         0.00000000
  -V(xc)+E(xc)   XCENC  =       -35.41113660
  PAW double counting   =       426.18347214     -349.52847705
  entropy T*S    EENTRO =        -0.00000003
  eigenvalues    EBANDS =      -184.08877374
  atomic energy  EATOM  =       771.06857575
  Solvation  Ediel_sol  =         0.00000000
  ---------------------------------------------------
  free energy    TOTEN  =       -22.20990565 eV

  energy without entropy =      -22.20990561  energy(sigma->0) =      -22.20990563


--------------------------------------------------------------------------------------------------------




--------------------------------------- Iteration      1(   7)  ---------------------------------------


    POTLOK:  cpu time    0.0210: real time    0.0203
    SETDIJ:  cpu time    0.0020: real time    0.0020
    EDDIAG:  cpu time    0.0260: real time    0.0265
  RMM-DIIS:  cpu time    0.0880: real time    0.0878
    ORTHCH:  cpu time    0.0030: real time    0.0030
       DOS:  cpu time    0.0020: real time    0.0018
    CHARGE:  cpu time    0.0110: real time    0.0114
    MIXING:  cpu time    0.0010: real time    0.0009
    --------------------------------------------
      LOOP:  cpu time    0.1540: real time    0.1537

 eigenvalue-minimisations  :   294
 total energy-change (2. order) : 0.3810369E+00  (-0.5834834E-01)
 number of electron      17.9999946 magnetization 
 augmentation part       -0.6139743 magnetization 

 Broyden mixing:
  rms(total) = 0.15518E+00    rms(broyden)= 0.15515E+00
  rms(prec ) = 0.15895E+00
  weight for this iteration     100.00

 eigenvalues of (default mixing * dielectric matrix)
  average eigenvalue GAMMA=   1.3734
  0.6639  2.0829

 Free energy of the ion-electron system (eV)
  ---------------------------------------------------
  alpha Z        PSCENC =         8.22821845
  Ewald energy   TEWEN  =      8097.06046244
  -Hartree energ DENC   =     -8761.63639172
  -exchange      EXHF   =         0.00000000
  -V(xc)+E(xc)   XCENC  =       -35.55571071
  PAW double counting   =       445.40763832     -368.98794918
  entropy T*S    EENTRO =        -0.00000000
  eigenvalues    EBANDS =      -177.41371207
  atomic energy  EATOM  =       771.06857575
  Solvation  Ediel_sol  =         0.00000000
  ---------------------------------------------------
  free energy    TOTEN  =       -21.82886872 eV

  energy without entropy =      -21.82886872  energy(sigma->0) =      -21.82886872


--------------------------------------------------------------------------------------------------------




--------------------------------------- Iteration      1(   8)  ---------------------------------------


    POTLOK:  cpu time    0.0200: real time    0.0201
    SETDIJ:  cpu time    0.0020: real time    0.0020
    EDDIAG:  cpu time    0.0260: real time    0.0264
  RMM-DIIS:  cpu time    0.0920: real time    0.0917
    ORTHCH:  cpu time    0.0020: real time    0.0030
       DOS:  cpu time    0.0020: real time    0.0017
    CHARGE:  cpu time    0.0110: real time    0.0114
    MIXING:  cpu time    0.0020: real time    0.0016
    --------------------------------------------
      LOOP:  cpu time    0.1570: real time    0.1580

 eigenvalue-minimisations  :   306
 total energy-change (2. order) : 0.6105026E-01  (-0.2353889E-01)
 number of electron      17.9999946 magnetization 
 augmentation part       -0.5604896 magnetization 

 Broyden mixing:
  rms(total) = 0.34690E-01    rms(broyden)= 0.34662E-01
  rms(prec ) = 0.35706E-01
  weight for this iteration     100.00

 eigenvalues of (default mixing * dielectric matrix)
  average eigenvalue GAMMA=   1.5009
  1.9205  1.9205  0.6616

 Free energy of the ion-electron system (eV)
  ---------------------------------------------------
  alpha Z        PSCENC =         8.22821845
  Ewald energy   TEWEN  =      8097.06046244
  -Hartree energ DENC   =     -8765.79061987
  -exchange      EXHF   =         0.00000000
  -V(xc)+E(xc)   XCENC  =       -35.26638757
  PAW double counting   =       471.41950485     -395.52028284
  entropy T*S    EENTRO =        -0.00000000
  eigenvalues    EBANDS =      -172.96728968
  atomic energy  EATOM  =       771.06857575
  Solvation  Ediel_sol  =         0.00000000
  ---------------------------------------------------
  free energy    TOTEN  =       -21.76781847 eV

  energy without entropy =      -21.76781847  energy(sigma->0) =      -21.76781847


--------------------------------------------------------------------------------------------------------




--------------------------------------- Iteration      1(   9)  ---------------------------------------


    POTLOK:  cpu time    0.0200: real time    0.0204
    SETDIJ:  cpu time    0.0020: real time    0.0020
    EDDIAG:  cpu time    0.0260: real time    0.0264
  RMM-DIIS:  cpu time    0.1010: real time    0.1003
    ORTHCH:  cpu time    0.0020: real time    0.0030
       DOS:  cpu time    0.0020: real time    0.0017
    CHARGE:  cpu time    0.0110: real time    0.0113
    MIXING:  cpu time    0.0010: real time    0.0011
    --------------------------------------------
      LOOP:  cpu time    0.1650: real time    0.1662

 eigenvalue-minimisations  :   334
 total energy-change (2. order) : 0.4672733E-02  (-0.8386794E-03)
 number of electron      17.9999946 magnetization 
 augmentation part       -0.5586356 magnetization 

 Broyden mixing:
  rms(total) = 0.91384E-02    rms(broyden)= 0.91327E-02
  rms(prec ) = 0.10119E-01
  weight for this iteration     100.00

 eigenvalues of (default mixing * dielectric matrix)
  average eigenvalue GAMMA=   1.5045
  0.6629  1.0477  2.4406  1.8667

 Free energy of the ion-electron system (eV)
  ---------------------------------------------------
  alpha Z        PSCENC =         8.22821845
  Ewald energy   TEWEN  =      8097.06046244
  -Hartree energ DENC   =     -8767.13418207
  -exchange      EXHF   =         0.00000000
  -V(xc)+E(xc)   XCENC  =       -35.21930826
  PAW double counting   =       476.69547732     -400.86389528
  entropy T*S    EENTRO =        -0.00000000
  eigenvalues    EBANDS =      -171.59849408
  atomic energy  EATOM  =       771.06857575
  Solvation  Ediel_sol  =         0.00000000
  ---------------------------------------------------
  free energy    TOTEN  =       -21.76314573 eV

  energy without entropy =      -21.76314573  energy(sigma->0) =      -21.76314573


--------------------------------------------------------------------------------------------------------




--------------------------------------- Iteration      1(  10)  ---------------------------------------


    POTLOK:  cpu time    0.0210: real time    0.0203
    SETDIJ:  cpu time    0.0020: real time    0.0020
    EDDIAG:  cpu time    0.0260: real time    0.0264
  RMM-DIIS:  cpu time    0.1020: real time    0.1015
    ORTHCH:  cpu time    0.0020: real time    0.0030
       DOS:  cpu time    0.0020: real time    0.0017
    CHARGE:  cpu time    0.0110: real time    0.0114
    MIXING:  cpu time    0.0020: real time    0.0011
    --------------------------------------------
      LOOP:  cpu time    0.1680: real time    0.1674

 eigenvalue-minimisations  :   336
 total energy-change (2. order) : 0.6671552E-03  (-0.1521492E-03)
 number of electron      17.9999946 magnetization 
 augmentation part       -0.5614276 magnetization 

 Broyden mixing:
  rms(total) = 0.42849E-02    rms(broyden)= 0.42806E-02
  rms(prec ) = 0.51388E-02
  weight for this iteration     100.00

 eigenvalues of (default mixing * dielectric matrix)
  average eigenvalue GAMMA=   1.6651
  0.6634  1.0354  2.1756  2.2256  2.2256

 Free energy of the ion-electron system (eV)
  ---------------------------------------------------
  alpha Z        PSCENC =         8.22821845
  Ewald energy   TEWEN  =      8097.06046244
  -Hartree energ DENC   =     -8768.31738785
  -exchange      EXHF   =         0.00000000
  -V(xc)+E(xc)   XCENC  =       -35.19485904
  PAW double counting   =       479.17751038     -403.37800759
  entropy T*S    EENTRO =        -0.00000000
  eigenvalues    EBANDS =      -170.40699112
  atomic energy  EATOM  =       771.06857575
  Solvation  Ediel_sol  =         0.00000000
  ---------------------------------------------------
  free energy    TOTEN  =       -21.76247858 eV

  energy without entropy =      -21.76247858  energy(sigma->0) =      -21.76247858


--------------------------------------------------------------------------------------------------------




--------------------------------------- Iteration      1(  11)  ---------------------------------------


    POTLOK:  cpu time    0.0200: real time    0.0206
    SETDIJ:  cpu time    0.0020: real time    0.0020
    EDDIAG:  cpu time    0.0270: real time    0.0263
  RMM-DIIS:  cpu time    0.0970: real time    0.0972
    ORTHCH:  cpu time    0.0030: real time    0.0030
       DOS:  cpu time    0.0020: real time    0.0017
    CHARGE:  cpu time    0.0110: real time    0.0113
    MIXING:  cpu time    0.0010: real time    0.0012
    --------------------------------------------
      LOOP:  cpu time    0.1630: real time    0.1634

 eigenvalue-minimisations  :   321
 total energy-change (2. order) : 0.6826634E-04  (-0.1486218E-03)
 number of electron      17.9999946 magnetization 
 augmentation part       -0.5589719 magnetization 

 Broyden mixing:
  rms(total) = 0.47429E-02    rms(broyden)= 0.47393E-02
  rms(prec ) = 0.51588E-02
  weight for this iteration     100.00

 eigenvalues of (default mixing * dielectric matrix)
  average eigenvalue GAMMA=   1.6659
  2.8057  2.8057  0.6637  1.4038  1.4038  0.9128

 Free energy of the ion-electron system (eV)
  ---------------------------------------------------
  alpha Z        PSCENC =         8.22821845
  Ewald energy   TEWEN  =      8097.06046244
  -Hartree energ DENC   =     -8769.47246023
  -exchange      EXHF   =         0.00000000
  -V(xc)+E(xc)   XCENC  =       -35.18343675
  PAW double counting   =       478.66878451     -402.86087951
  entropy T*S    EENTRO =        -0.00000000
  eigenvalues    EBANDS =      -169.27167496
  atomic energy  EATOM  =       771.06857575
  Solvation  Ediel_sol  =         0.00000000
  ---------------------------------------------------
  free energy    TOTEN  =       -21.76241031 eV

  energy without entropy =      -21.76241031  energy(sigma->0) =      -21.76241031


--------------------------------------------------------------------------------------------------------




--------------------------------------- Iteration      1(  12)  ---------------------------------------


    POTLOK:  cpu time    0.0200: real time    0.0205
    SETDIJ:  cpu time    0.0020: real time    0.0020
    EDDIAG:  cpu time    0.0260: real time    0.0263
  RMM-DIIS:  cpu time    0.0950: real time    0.0944
    ORTHCH:  cpu time    0.0020: real time    0.0030
       DOS:  cpu time    0.0020: real time    0.0017
    CHARGE:  cpu time    0.0110: real time    0.0113
    MIXING:  cpu time    0.0010: real time    0.0013
    --------------------------------------------
      LOOP:  cpu time    0.1590: real time    0.1605

 eigenvalue-minimisations  :   309
 total energy-change (2. order) : 0.7898963E-04  (-0.4206798E-04)
 number of electron      17.9999946 magnetization 
 augmentation part       -0.5605044 magnetization 

 Broyden mixing:
  rms(total) = 0.14396E-02    rms(broyden)= 0.14310E-02
  rms(prec ) = 0.18072E-02
  weight for this iteration     100.00

 eigenvalues of (default mixing * dielectric matrix)
  average eigenvalue GAMMA=   1.9557
  3.6920  2.8429  2.8429  0.6637  0.9696  1.3395  1.3395

 Free energy of the ion-electron system (eV)
  ---------------------------------------------------
  alpha Z        PSCENC =         8.22821845
  Ewald energy   TEWEN  =      8097.06046244
  -Hartree energ DENC   =     -8770.24145705
  -exchange      EXHF   =         0.00000000
  -V(xc)+E(xc)   XCENC  =       -35.17784565
  PAW double counting   =       478.84245650     -403.03261974
  entropy T*S    EENTRO =        -0.00000000
  eigenvalues    EBANDS =      -168.51012201
  atomic energy  EATOM  =       771.06857575
  Solvation  Ediel_sol  =         0.00000000
  ---------------------------------------------------
  free energy    TOTEN  =       -21.76233132 eV

  energy without entropy =      -21.76233132  energy(sigma->0) =      -21.76233132


--------------------------------------------------------------------------------------------------------




--------------------------------------- Iteration      1(  13)  ---------------------------------------


    POTLOK:  cpu time    0.0220: real time    0.0246
    SETDIJ:  cpu time    0.0020: real time    0.0020
    EDDIAG:  cpu time    0.0260: real time    0.0265
  RMM-DIIS:  cpu time    0.0930: real time    0.0923
    ORTHCH:  cpu time    0.0030: real time    0.0030
       DOS:  cpu time    0.0020: real time    0.0017
    CHARGE:  cpu time    0.0110: real time    0.0115
    MIXING:  cpu time    0.0010: real time    0.0014
    --------------------------------------------
      LOOP:  cpu time    0.1600: real time    0.1629

 eigenvalue-minimisations  :   308
 total energy-change (2. order) :-0.4326428E-03  (-0.1383436E-04)
 number of electron      17.9999946 magnetization 
 augmentation part       -0.5594876 magnetization 

 Broyden mixing:
  rms(total) = 0.17171E-02    rms(broyden)= 0.17101E-02
  rms(prec ) = 0.18219E-02
  weight for this iteration     100.00

 eigenvalues of (default mixing * dielectric matrix)
  average eigenvalue GAMMA=   1.9050
  4.7837  2.6873  2.3800  1.4104  1.4104  0.6638  0.9522  0.9522

 Free energy of the ion-electron system (eV)
  ---------------------------------------------------
  alpha Z        PSCENC =         8.22821845
  Ewald energy   TEWEN  =      8097.06046244
  -Hartree energ DENC   =     -8771.06660421
  -exchange      EXHF   =         0.00000000
  -V(xc)+E(xc)   XCENC  =       -35.17116003
  PAW double counting   =       478.85183958     -403.04693684
  entropy T*S    EENTRO =        -0.00000000
  eigenvalues    EBANDS =      -167.68715911
  atomic energy  EATOM  =       771.06857575
  Solvation  Ediel_sol  =         0.00000000
  ---------------------------------------------------
  free energy    TOTEN  =       -21.76276397 eV

  energy without entropy =      -21.76276397  energy(sigma->0) =      -21.76276397


--------------------------------------------------------------------------------------------------------




--------------------------------------- Iteration      1(  14)  ---------------------------------------


    POTLOK:  cpu time    0.0210: real time    0.0208
    SETDIJ:  cpu time    0.0020: real time    0.0020
    EDDIAG:  cpu time    0.0260: real time    0.0264
  RMM-DIIS:  cpu time    0.0990: real time    0.0983
    ORTHCH:  cpu time    0.0020: real time    0.0030
       DOS:  cpu time    0.0020: real time    0.0017
    CHARGE:  cpu time    0.0110: real time    0.0114
    MIXING:  cpu time    0.0010: real time    0.0014
    --------------------------------------------
      LOOP:  cpu time    0.1640: real time    0.1650

 eigenvalue-minimisations  :   327
 total energy-change (2. order) :-0.8918583E-04  (-0.2570338E-05)
 number of electron      17.9999946 magnetization 
 augmentation part       -0.5604378 magnetization 

 Broyden mixing:
  rms(total) = 0.49183E-03    rms(broyden)= 0.46696E-03
  rms(prec ) = 0.56892E-03
  weight for this iteration     100.00

 eigenvalues of (default mixing * dielectric matrix)
  average eigenvalue GAMMA=   2.2052
  6.7477  3.0627  2.3508  2.3508  0.6638  1.5061  0.9852  0.9852  1.1942

 Free energy of the ion-electron system (eV)
  ---------------------------------------------------
  alpha Z        PSCENC =         8.22821845
  Ewald energy   TEWEN  =      8097.06046244
  -Hartree energ DENC   =     -8771.27688883
  -exchange      EXHF   =         0.00000000
  -V(xc)+E(xc)   XCENC  =       -35.17286797
  PAW double counting   =       478.63782849     -402.82812919
  entropy T*S    EENTRO =        -0.00000000
  eigenvalues    EBANDS =      -167.48005229
  atomic energy  EATOM  =       771.06857575
  Solvation  Ediel_sol  =         0.00000000
  ---------------------------------------------------
  free energy    TOTEN  =       -21.76285315 eV

  energy without entropy =      -21.76285315  energy(sigma->0) =      -21.76285315


--------------------------------------------------------------------------------------------------------




--------------------------------------- Iteration      1(  15)  ---------------------------------------


    POTLOK:  cpu time    0.0210: real time    0.0208
    SETDIJ:  cpu time    0.0030: real time    0.0020
    EDDIAG:  cpu time    0.0260: real time    0.0269
  RMM-DIIS:  cpu time    0.0850: real time    0.0840
    ORTHCH:  cpu time    0.0020: real time    0.0030
       DOS:  cpu time    0.0020: real time    0.0017
    CHARGE:  cpu time    0.0110: real time    0.0114
    MIXING:  cpu time    0.0020: real time    0.0015
    --------------------------------------------
      LOOP:  cpu time    0.1520: real time    0.1513

 eigenvalue-minimisations  :   283
 total energy-change (2. order) :-0.1613390E-03  (-0.1780323E-05)
 number of electron      17.9999946 magnetization 
 augmentation part       -0.5600186 magnetization 

 Broyden mixing:
  rms(total) = 0.37238E-03    rms(broyden)= 0.33911E-03
  rms(prec ) = 0.37945E-03
  weight for this iteration     100.00

 eigenvalues of (default mixing * dielectric matrix)
  average eigenvalue GAMMA=   2.1589
  6.6612  3.4845  2.6053  1.7354  1.6941  1.6941  0.6638  1.0470  1.0470  0.9570

 Free energy of the ion-electron system (eV)
  ---------------------------------------------------
  alpha Z        PSCENC =         8.22821845
  Ewald energy   TEWEN  =      8097.06046244
  -Hartree energ DENC   =     -8771.52319866
  -exchange      EXHF   =         0.00000000
  -V(xc)+E(xc)   XCENC  =       -35.17186514
  PAW double counting   =       478.67101469     -402.86218241
  entropy T*S    EENTRO =        -0.00000000
  eigenvalues    EBANDS =      -167.23403962
  atomic energy  EATOM  =       771.06857575
  Solvation  Ediel_sol  =         0.00000000
  ---------------------------------------------------
  free energy    TOTEN  =       -21.76301449 eV

  energy without entropy =      -21.76301449  energy(sigma->0) =      -21.76301449


--------------------------------------------------------------------------------------------------------




--------------------------------------- Iteration      1(  16)  ---------------------------------------


    POTLOK:  cpu time    0.0210: real time    0.0208
    SETDIJ:  cpu time    0.0020: real time    0.0019
    EDDIAG:  cpu time    0.0260: real time    0.0264
  RMM-DIIS:  cpu time    0.0780: real time    0.0784
    ORTHCH:  cpu time    0.0030: real time    0.0030
       DOS:  cpu time    0.0020: real time    0.0017
    CHARGE:  cpu time    0.0110: real time    0.0114
    MIXING:  cpu time    0.0020: real time    0.0017
    --------------------------------------------
      LOOP:  cpu time    0.1450: real time    0.1454

 eigenvalue-minimisations  :   240
 total energy-change (2. order) :-0.4193358E-04  (-0.2828576E-06)
 number of electron      17.9999946 magnetization 
 augmentation part       -0.5603154 magnetization 

 Broyden mixing:
  rms(total) = 0.22367E-03    rms(broyden)= 0.16248E-03
  rms(prec ) = 0.18437E-03
  weight for this iteration     100.00
  WARNING: grid for Broyden might be to small

 eigenvalues of (default mixing * dielectric matrix)
  average eigenvalue GAMMA=   2.3614
  7.4869  4.5182  2.9432  2.5856  2.1522  1.5001  0.6638  1.2070  0.9997  0.9997
  0.9188

 Free energy of the ion-electron system (eV)
  ---------------------------------------------------
  alpha Z        PSCENC =         8.22821845
  Ewald energy   TEWEN  =      8097.06046244
  -Hartree energ DENC   =     -8771.57644768
  -exchange      EXHF   =         0.00000000
  -V(xc)+E(xc)   XCENC  =       -35.17211802
  PAW double counting   =       478.70161408     -402.89304704
  entropy T*S    EENTRO =        -0.00000000
  eigenvalues    EBANDS =      -167.18031440
  atomic energy  EATOM  =       771.06857575
  Solvation  Ediel_sol  =         0.00000000
  ---------------------------------------------------
  free energy    TOTEN  =       -21.76305642 eV

  energy without entropy =      -21.76305642  energy(sigma->0) =      -21.76305642


--------------------------------------------------------------------------------------------------------




--------------------------------------- Iteration      1(  17)  ---------------------------------------


    POTLOK:  cpu time    0.0200: real time    0.0208
    SETDIJ:  cpu time    0.0030: real time    0.0019
    EDDIAG:  cpu time    0.0260: real time    0.0263
  RMM-DIIS:  cpu time    0.0690: real time    0.0685
    ORTHCH:  cpu time    0.0020: real time    0.0030
       DOS:  cpu time    0.0020: real time    0.0017
    CHARGE:  cpu time    0.0110: real time    0.0114
    MIXING:  cpu time    0.0020: real time    0.0018
    --------------------------------------------
      LOOP:  cpu time    0.1350: real time    0.1355

 eigenvalue-minimisations  :   205
 total energy-change (2. order) :-0.3874751E-04  (-0.1951530E-06)
 number of electron      17.9999946 magnetization 
 augmentation part       -0.5602466 magnetization 

 Broyden mixing:
  rms(total) = 0.19845E-03    rms(broyden)= 0.12556E-03
  rms(prec ) = 0.13343E-03
  weight for this iteration     100.00
  WARNING: grid for Broyden might be to small

 eigenvalues of (default mixing * dielectric matrix)
  average eigenvalue GAMMA=   2.2720
  7.6735  4.7503  2.9316  2.4716  2.1614  0.6638  1.4795  1.3283  0.9987  0.9987
  0.9248  0.8817

 Free energy of the ion-electron system (eV)
  ---------------------------------------------------
  alpha Z        PSCENC =         8.22821845
  Ewald energy   TEWEN  =      8097.06046244
  -Hartree energ DENC   =     -8771.61765433
  -exchange      EXHF   =         0.00000000
  -V(xc)+E(xc)   XCENC  =       -35.17215562
  PAW double counting   =       478.67120026     -402.86195478
  entropy T*S    EENTRO =        -0.00000000
  eigenvalues    EBANDS =      -167.13978735
  atomic energy  EATOM  =       771.06857575
  Solvation  Ediel_sol  =         0.00000000
  ---------------------------------------------------
  free energy    TOTEN  =       -21.76309517 eV

  energy without entropy =      -21.76309517  energy(sigma->0) =      -21.76309517


--------------------------------------------------------------------------------------------------------




--------------------------------------- Iteration      1(  18)  ---------------------------------------


    POTLOK:  cpu time    0.0200: real time    0.0208
    SETDIJ:  cpu time    0.0030: real time    0.0020
    EDDIAG:  cpu time    0.0260: real time    0.0264
  RMM-DIIS:  cpu time    0.0640: real time    0.0642
    ORTHCH:  cpu time    0.0030: real time    0.0030
       DOS:  cpu time    0.0020: real time    0.0017
    CHARGE:  cpu time    0.0110: real time    0.0113
    MIXING:  cpu time    0.0020: real time    0.0019
    --------------------------------------------
      LOOP:  cpu time    0.1310: real time    0.1312

 eigenvalue-minimisations  :   157
 total energy-change (2. order) :-0.2680329E-05  (-0.1884617E-07)
 number of electron      17.9999946 magnetization 
 augmentation part       -0.5602283 magnetization 

 Broyden mixing:
  rms(total) = 0.16571E-03    rms(broyden)= 0.62046E-04
  rms(prec ) = 0.67785E-04
  weight for this iteration     100.00
  WARNING: grid for Broyden might be to small

 eigenvalues of (default mixing * dielectric matrix)
  average eigenvalue GAMMA=   2.3672
  7.6683  5.6864  2.8126  2.8126  2.3340  2.0475  1.6025  0.6638  1.1325  1.1325
  1.0408  0.9581  0.8823

 Free energy of the ion-electron system (eV)
  ---------------------------------------------------
  alpha Z        PSCENC =         8.22821845
  Ewald energy   TEWEN  =      8097.06046244
  -Hartree energ DENC   =     -8771.62078133
  -exchange      EXHF   =         0.00000000
  -V(xc)+E(xc)   XCENC  =       -35.17211673
  PAW double counting   =       478.67856380     -402.86947271
  entropy T*S    EENTRO =        -0.00000000
  eigenvalues    EBANDS =      -167.13654752
  atomic energy  EATOM  =       771.06857575
  Solvation  Ediel_sol  =         0.00000000
  ---------------------------------------------------
  free energy    TOTEN  =       -21.76309785 eV

  energy without entropy =      -21.76309785  energy(sigma->0) =      -21.76309785


--------------------------------------------------------------------------------------------------------




--------------------------------------- Iteration      1(  19)  ---------------------------------------


    POTLOK:  cpu time    0.0200: real time    0.0207
    SETDIJ:  cpu time    0.0020: real time    0.0020
    EDDIAG:  cpu time    0.0270: real time    0.0264
  RMM-DIIS:  cpu time    0.0640: real time    0.0642
    ORTHCH:  cpu time    0.0030: real time    0.0030
       DOS:  cpu time    0.0010: real time    0.0017
    CHARGE:  cpu time    0.0110: real time    0.0113
    MIXING:  cpu time    0.0020: real time    0.0020
    --------------------------------------------
      LOOP:  cpu time    0.1300: real time    0.1313

 eigenvalue-minimisations  :   178
 total energy-change (2. order) :-0.5310060E-05  (-0.4740913E-07)
 number of electron      17.9999946 magnetization 
 augmentation part       -0.5602470 magnetization 

 Broyden mixing:
  rms(total) = 0.16142E-03    rms(broyden)= 0.49460E-04
  rms(prec ) = 0.52301E-04
  weight for this iteration     100.00
  WARNING: grid for Broyden might be to small

 eigenvalues of (default mixing * dielectric matrix)
  average eigenvalue GAMMA=   2.3814
  7.8373  5.8845  3.5111  2.7784  2.4027  1.8516  1.8516  1.4952  0.6638  1.1130
  1.1130  0.9595  0.9595  0.9186

 Free energy of the ion-electron system (eV)
  ---------------------------------------------------
  alpha Z        PSCENC =         8.22821845
  Ewald energy   TEWEN  =      8097.06046244
  -Hartree energ DENC   =     -8771.62546720
  -exchange      EXHF   =         0.00000000
  -V(xc)+E(xc)   XCENC  =       -35.17216330
  PAW double counting   =       478.68234074     -402.87335859
  entropy T*S    EENTRO =        -0.00000000
  eigenvalues    EBANDS =      -167.13171144
  atomic energy  EATOM  =       771.06857575
  Solvation  Ediel_sol  =         0.00000000
  ---------------------------------------------------
  free energy    TOTEN  =       -21.76310316 eV

  energy without entropy =      -21.76310316  energy(sigma->0) =      -21.76310316


--------------------------------------------------------------------------------------------------------




--------------------------------------- Iteration      1(  20)  ---------------------------------------


    POTLOK:  cpu time    0.0220: real time    0.0245
    SETDIJ:  cpu time    0.0020: real time    0.0019
    EDDIAG:  cpu time    0.0260: real time    0.0264
  RMM-DIIS:  cpu time    0.0580: real time    0.0573
    ORTHCH:  cpu time    0.0030: real time    0.0031
       DOS:  cpu time    0.0010: real time    0.0017
    --------------------------------------------
      LOOP:  cpu time    0.1120: real time    0.1149

 eigenvalue-minimisations  :   132
 total energy-change (2. order) :-0.9518636E-06  (-0.8269116E-08)
 number of electron      17.9999946 magnetization 
 augmentation part       -0.5602470 magnetization 

 Free energy of the ion-electron system (eV)
  ---------------------------------------------------
  alpha Z        PSCENC =         8.22821845
  Ewald energy   TEWEN  =      8097.06046244
  -Hartree energ DENC   =     -8771.63230221
  -exchange      EXHF   =         0.00000000
  -V(xc)+E(xc)   XCENC  =       -35.17211203
  PAW double counting   =       478.68006144     -402.87105836
  entropy T*S    EENTRO =        -0.00000000
  eigenvalues    EBANDS =      -167.12494959
  atomic energy  EATOM  =       771.06857575
  Solvation  Ediel_sol  =         0.00000000
  ---------------------------------------------------
  free energy    TOTEN  =       -21.76310411 eV

  energy without entropy =      -21.76310411  energy(sigma->0) =      -21.76310411


--------------------------------------------------------------------------------------------------------




 average (electrostatic) potential at core
  the test charge radii are     1.2296  0.9698
  (the norm of the test charge is              1.0000)
       1 -47.7501       2 -95.6025       3 -95.6024
 
 
 
 E-fermi :  -3.4700     XC(G=0):  -1.9684     alpha+bet : -1.7538


 k-point     1 :       0.0000    0.0000    0.0000
  band No.  band energies     occupation 
      1     -18.3322      2.00000
      2     -17.1239      2.00000
      3      -9.8420      2.00000
      4      -6.8801      2.00000
      5      -6.8799      2.00000
      6      -6.0202      2.00000
      7      -5.7729      2.00000
      8      -5.7724      2.00000
      9      -4.2978      2.00000
     10      -1.5238      0.00000
     11      -1.5231      0.00000
     12      -1.3013      0.00000
     13      -1.3007      0.00000
     14       1.1092      0.00000

 k-point     2 :       0.1250    0.0000    0.0000
  band No.  band energies     occupation 
      1     -18.1182      2.00000
      2     -17.0214      2.00000
      3      -9.5972      2.00000
      4      -7.3445      2.00000
      5      -6.8274      2.00000
      6      -6.6459      2.00000
      7      -6.1091      2.00000
      8      -5.3416      2.00000
      9      -4.4366      2.00000
     10      -1.8065      0.00000
     11      -1.7400      0.00000
     12      -1.5383      0.00000
     13      -1.1695      0.00000
     14       1.4778      0.00000

 k-point     3 :       0.2500    0.0000    0.0000
  band No.  band energies     occupation 
      1     -17.5496      2.00000
      2     -16.7525      2.00000
      3      -9.2310      2.00000
      4      -8.0727      2.00000
      5      -7.8089      2.00000
      6      -6.7457      2.00000
      7      -6.0599      2.00000
      8      -5.5935      2.00000
      9      -5.0052      2.00000
     10      -2.1307      0.00000
     11      -1.9553      0.00000
     12      -1.4125      0.00000
     13      -0.5545      0.00000
     14       2.3029      0.00000

 k-point     4 :       0.3750   -0.0000    0.0000
  band No.  band energies     occupation 
      1     -16.8747      2.00000
      2     -16.4439      2.00000
      3      -9.6704      2.00000
      4      -8.6777      2.00000
      5      -8.2039      2.00000
      6      -7.2443      2.00000
      7      -6.0027      2.00000
      8      -5.4699      2.00000
      9      -5.1993      2.00000
     10      -2.1381      0.00000
     11      -1.8581      0.00000
     12      -0.6936      0.00000
     13      -0.1617      0.00000
     14       2.8629      0.00000

 k-point     5 :       0.5000    0.0000    0.0000
  band No.  band energies     occupation 
      1     -16.5464      2.00000
      2     -16.3006      2.00000
      3     -10.0034      2.00000
      4      -9.0439      2.00000
      5      -8.3294      2.00000
      6      -7.4250      2.00000
      7      -6.1410      2.00000
      8      -5.2430      2.00000
      9      -4.9178      2.00000
     10      -2.1164      0.00000
     11      -1.6017      0.00000
     12      -0.3938      0.00000
     13      -0.0461      0.00000
     14       1.9086      0.00000

 k-point     6 :       0.1250    0.1250    0.0000
  band No.  band energies     occupation 
      1     -17.7255      2.00000
      2     -16.8343      2.00000
      3      -9.2497      2.00000
      4      -7.9098      2.00000
      5      -7.3902      2.00000
      6      -6.9235      2.00000
      7      -6.3073      2.00000
      8      -5.2069      2.00000
      9      -4.8094      2.00000
     10      -2.2057      0.00000
     11      -1.8281      0.00000
     12      -1.8161      0.00000
     13      -0.5755      0.00000
     14       2.0685      0.00000

 k-point     7 :       0.2500    0.1250    0.0000
  band No.  band energies     occupation 
      1     -17.0921      2.00000
      2     -16.5357      2.00000
      3      -9.3139      2.00000
      4      -8.3363      2.00000
      5      -8.0730      2.00000
      6      -7.4289      2.00000
      7      -6.2083      2.00000
      8      -5.5699      2.00000
      9      -5.0932      2.00000
     10      -2.2894      0.00000
     11      -1.8426      0.00000
     12      -1.3460      0.00000
     13      -0.0701      0.00000
     14       3.0524      0.00000

 k-point     8 :       0.3750    0.1250    0.0000
  band No.  band energies     occupation 
      1     -16.5617      2.00000
      2     -16.2917      2.00000
      3      -9.7158      2.00000
      4      -9.0999      2.00000
      5      -8.2020      2.00000
      6      -7.4465      2.00000
      7      -6.1931      2.00000
      8      -6.0510      2.00000
      9      -4.7663      2.00000
     10      -2.0973      0.00000
     11      -1.5872      0.00000
     12      -0.7219      0.00000
     13      -0.0359      0.00000
     14       2.4335      0.00000

 k-point     9 :       0.2500    0.2500    0.0000
  band No.  band energies     occupation 
      1     -16.5767      2.00000
      2     -16.2828      2.00000
      3      -9.3551      2.00000
      4      -9.1499      2.00000
      5      -7.8756      2.00000
      6      -7.4948      2.00000
      7      -7.1756      2.00000
      8      -5.9182      2.00000
      9      -4.7962      2.00000
     10      -2.1481      0.00000
     11      -1.5366      0.00000
     12      -1.2201      0.00000
     13       0.2481      0.00000
     14       3.2643      0.00000

 k-point    10 :       0.3750    0.2500    0.0000
  band No.  band energies     occupation 
      1     -16.3417      2.00000
      2     -16.1638      2.00000
      3      -9.5346      2.00000
      4      -9.1859      2.00000
      5      -8.1591      2.00000
      6      -7.4970      2.00000
      7      -7.2689      2.00000
      8      -6.3037      2.00000
      9      -4.4288      2.00000
     10      -2.4745      0.00000
     11      -1.1593      0.00000
     12      -0.9873      0.00000
     13       0.3913      0.00000
     14       2.6775      0.00000


--------------------------------------------------------------------------------------------------------


 soft charge-density along one line, spin component           1
         0         1         2         3         4         5         6         7         8         9
 total charge-density along one line
 
 pseudopotential strength for first ion, spin component:           1
-10.219  -0.000  -0.000   0.000  -0.000   0.126   0.000   0.000
 -0.000 -10.220  -0.000  -0.000  -0.000   0.000   0.126   0.000
 -0.000  -0.000 -10.199  -0.000   0.000   0.000   0.000   0.124
  0.000  -0.000  -0.000 -10.220   0.000  -0.000   0.000   0.000
 -0.000  -0.000   0.000   0.000 -10.219   0.000   0.000  -0.000
  0.126   0.000   0.000  -0.000   0.000   0.096  -0.000  -0.000
  0.000   0.126   0.000   0.000   0.000  -0.000   0.096  -0.000
  0.000   0.000   0.124   0.000  -0.000  -0.000  -0.000   0.096
 -0.000   0.000   0.000   0.126  -0.000   0.000   0.000  -0.000
  0.000   0.000  -0.000  -0.000   0.126  -0.000  -0.000   0.000
 -0.000  -0.000  -0.005  -0.000   0.000   0.000   0.000   0.000
  0.000   0.000   0.001   0.000  -0.000  -0.000  -0.000  -0.000
 -0.000  -0.000  -0.000  -0.000  -0.007   0.000   0.000   0.000
 -0.000   0.000  -0.000  -0.000  -0.000  -0.000  -0.000   0.000
 -0.007  -0.000   0.000  -0.000  -0.000  -0.000  -0.000  -0.000
  0.000   0.000   0.000   0.000   0.004  -0.000  -0.000  -0.000
  0.000  -0.000   0.000   0.000   0.000  -0.000   0.000  -0.000
  0.004   0.000  -0.000   0.000   0.000   0.000  -0.000   0.000
 total augmentation occupancy for first ion, spin component:           1
  0.970   0.000  -0.000  -0.000  -0.000   0.662   0.000  -0.000   0.000  -0.000  -0.000   0.000   0.000   0.000  -0.066  -0.000
 -0.000   0.911  -0.000   0.000   0.000   0.000   0.897  -0.000   0.000  -0.000   0.000   0.000  -0.000   0.000  -0.000  -0.000
 -0.000  -0.000   1.035   0.000   0.000  -0.000   0.000   0.567   0.000   0.000   0.111  -0.019  -0.000  -0.000   0.000   0.000
  0.000   0.000  -0.000   0.911   0.000  -0.000   0.000   0.000   0.897   0.000   0.000   0.000   0.000  -0.000   0.000   0.000
 -0.000   0.000   0.000  -0.000   0.970  -0.000   0.000   0.000   0.000   0.662   0.000  -0.000  -0.066   0.000  -0.000   0.007
  0.662   0.000  -0.000  -0.000  -0.000   0.769   0.000  -0.000   0.000  -0.000   0.000   0.000   0.000   0.000  -0.143  -0.000
  0.000   0.897   0.000   0.000   0.000   0.000   1.206   0.000   0.000  -0.000  -0.000   0.000  -0.000  -0.000   0.000   0.000
 -0.000   0.000   0.567   0.000   0.000  -0.000  -0.000   0.551   0.000   0.000   0.066  -0.023  -0.000   0.000   0.000   0.000
  0.000   0.000   0.000   0.897   0.000   0.000   0.000   0.000   1.206  -0.000  -0.000   0.000   0.000   0.000   0.000   0.000
 -0.000  -0.000   0.000   0.000   0.662  -0.000   0.000   0.000  -0.000   0.769   0.000  -0.000  -0.143   0.000  -0.000   0.024
 -0.000   0.000   0.111   0.000   0.000   0.000   0.000   0.066   0.000   0.000   1.210  -0.183   0.000  -0.000   0.000  -0.000
  0.000   0.000  -0.019   0.000  -0.000   0.000   0.000  -0.023  -0.000  -0.000  -0.183   0.041   0.000   0.000  -0.000  -0.000
  0.000   0.000  -0.000   0.000  -0.066   0.000  -0.000  -0.000   0.000  -0.143   0.000   0.000   0.217   0.000   0.000  -0.033
  0.000   0.000  -0.000  -0.000   0.000  -0.000   0.000   0.000   0.000   0.000   0.000   0.000   0.000   0.265   0.000  -0.000
 -0.066   0.000   0.000   0.000  -0.000  -0.143   0.000   0.000   0.000  -0.000  -0.000   0.000   0.000   0.000   0.217  -0.000
 -0.000  -0.000   0.000   0.000   0.007  -0.000  -0.000   0.000   0.000   0.024   0.000  -0.000  -0.033  -0.000  -0.000   0.005
 -0.000   0.000  -0.000   0.000   0.000  -0.000   0.000  -0.000  -0.000  -0.000   0.000   0.000   0.000  -0.039   0.000   0.000
  0.007   0.000  -0.000   0.000   0.000   0.024   0.000  -0.000   0.000   0.000   0.000  -0.000  -0.000  -0.000  -0.033   0.000


------------------------ aborting loop because EDIFF is reached ----------------------------------------


 


 total charge     
 
# of ion       s       p       d       tot
------------------------------------------
    1        0.414   0.593   4.443   5.450
    2        1.366   2.356   0.000   3.722
    3        1.366   2.356   0.000   3.722
--------------------------------------------------
tot          3.145   5.305   4.443  12.894
 
    CHARGE:  cpu time    0.0110: real time    0.0117
    FORLOC:  cpu time    0.0020: real time    0.0022
    FORNL :  cpu time    0.0410: real time    0.0411
    STRESS:  cpu time    0.1270: real time    0.1273
    FORCOR:  cpu time    0.0230: real time    0.0233
    FORHAR:  cpu time    0.0050: real time    0.0055
    MIXING:  cpu time    0.0030: real time    0.0021
    OFIELD:  cpu time    0.0000: real time    0.0000

  DFT-D2 method for vdW energy calculation
  -------------------------------------------------------------------

  Parameters of vdW forcefield:
         C6(Jnm^6/mol)     R0(A)
   -----------------------------
   Mo      24.670          1.639
   S        5.570          1.683

  IVDW =   1
  VDW_RADIUS =    50.000 A
  VDW_S6 =     0.750
  VDW_SR =     1.000
  VDW_D =    20.000
  LVDW_EWALD = F

  Number of pair interactions contributing to vdW energy:    8895
  Edisp (eV):   -0.59070
    FORVDW:  cpu time    0.0140: real time    0.0183

  FORCE on cell =-STRESS in cart. coord.  units (eV):
  Direction    XX          YY          ZZ          XY          YZ          ZX
  --------------------------------------------------------------------------------------
  Alpha Z     8.22822     8.22822     8.22822
  Ewald    8663.92662  8663.92706 -9230.79366     0.00019     0.00000     0.00012
  Hartree  8733.39854  8733.39854 -8695.15734     0.00002     0.00000    -0.00000
  E(xc)     -70.33542   -70.33539   -70.93948     0.00003    -0.00003    -0.00002
  Local  -17674.47435-17674.47593 17642.79824    -0.00129    -0.00029    -0.00022
  n-local   127.31126   125.92576   131.85651    -0.26452    -0.00002     0.00002
  augment   -25.66782   -25.66738   -26.76946     0.00039    -0.00002    -0.00001
  Kinetic   236.13647   238.93272   240.02567    -7.43176     0.00008     0.00008
  Fock        0.00000     0.00000     0.00000     0.00000     0.00000     0.00000
  vdW         0.16061     0.16061    -0.13338     0.00000     0.00000    -0.00000
  -------------------------------------------------------------------------------------
  Total      -0.61083    -0.61083    -0.88468    -0.00000    -0.00000     0.00000
  in kB      -2.71602    -2.71602    -3.93368    -0.00000    -0.00000     0.00000
  external pressure =       -3.12 kB  Pullay stress =        0.00 kB


 VOLUME and BASIS-vectors are now :
 -----------------------------------------------------------------------------
  energy-cutoff  :      250.00
  volume of cell :      360.33
      direct lattice vectors                 reciprocal lattice vectors
     3.190315730  0.000000000  0.000000000     0.313448600  0.180969634  0.000000000
    -1.595157865  2.762894468  0.000000000     0.000000000  0.361939267  0.000000000
     0.000000000  0.000000000 40.879004300     0.000000000  0.000000000  0.024462435

  length of vectors
     3.190315730  3.190315730 40.879004300     0.361939267  0.361939267  0.024462435


 FORCES acting on ions
    electron-ion (+dipol)            ewald-force                    non-local-force                 convergence-correction
 -----------------------------------------------------------------------------------------------
   -.113E-04 -.182E-05 -.261E-04   0.931E-04 -.108E-03 0.402E-06   0.694E-17 -.694E-17 0.108E-18   0.118E-08 -.221E-08 0.776E-08
   -.122E-02 -.195E-04 0.623E+03   -.864E-04 0.538E-04 -.628E+03   -.173E-17 -.173E-17 0.496E+01   -.449E-08 0.295E-08 -.447E-03
   0.112E-02 0.107E-02 -.623E+03   -.674E-05 0.538E-04 0.628E+03   0.347E-17 -.173E-17 -.496E+01   0.396E-08 0.346E-08 0.447E-03
 -----------------------------------------------------------------------------------------------
   -.105E-03 0.104E-02 0.812E-05   0.188E-13 -.776E-14 0.114E-12   0.867E-17 -.104E-16 0.888E-15   0.652E-09 0.420E-08 0.272E-07
 
 
 POSITION                                       TOTAL-FORCE (eV/Angst)
 -----------------------------------------------------------------------------------
     -0.00000      1.84193      3.71975         0.000000     -0.000000     -0.000000
      1.59516      0.92096      2.15487        -0.000000      0.000000      0.105171
      1.59516      0.92096      5.28464        -0.000000     -0.000000     -0.105171
 -----------------------------------------------------------------------------------
    total drift:                               -0.000105      0.001044      0.000008


--------------------------------------------------------------------------------------------------------



  FREE ENERGIE OF THE ION-ELECTRON SYSTEM (eV)
  ---------------------------------------------------
  free  energy   TOTEN  =       -22.35380288 eV

  energy  without entropy=      -22.35380288  energy(sigma->0) =      -22.35380288
 


--------------------------------------------------------------------------------------------------------


    POTLOK:  cpu time    0.0230: real time    0.0226


--------------------------------------------------------------------------------------------------------


     LOOP+:  cpu time    3.6214: real time    3.8686
    4ORBIT:  cpu time    0.0000: real time    0.0000
 


 total charge     
 
# of ion       s       p       d       tot
------------------------------------------
    1        0.414   0.593   4.443   5.450
    2        1.366   2.356   0.000   3.722
    3        1.366   2.356   0.000   3.722
--------------------------------------------------
tot          3.145   5.305   4.443  12.894
 

 total amount of memory used by VASP MPI-rank0    37204. kBytes
=======================================================================

   base      :      30000. kBytes
   nonlr-proj:        345. kBytes
   fftplans  :       1905. kBytes
   grid      :       3053. kBytes
   one-center:         31. kBytes
   wavefun   :       1870. kBytes
 
  
  
 General timing and accounting informations for this job:
 ========================================================
  
                  Total CPU time used (sec):        4.817
                            User time (sec):        4.698
                          System time (sec):        0.119
                         Elapsed time (sec):       10.692
  
                   Maximum memory used (kb):       32100.
                   Average memory used (kb):           0.
  
                          Minor page faults:         8105
                          Major page faults:          177
                 Voluntary context switches:         2528
