<?xml version="1.0" encoding="ISO-8859-1"?>
<modeling>
 <generator>
  <i name="program" type="string">vasp </i>
  <i name="version" type="string">5.4.4.18Apr17-6-g9f103f2a35  </i>
  <i name="subversion" type="string">(build Jun 30 2017 11:15:00) complex            parallel </i>
  <i name="platform" type="string">STALLO_VASP_5.4.4 </i>
  <i name="date" type="string">2019 11 08 </i>
  <i name="time" type="string">11:48:46 </i>
 </generator>
 <incar>
  <i type="string" name="PREC">normal    ! low/normal/accurate</i>
  <i type="string" name="ALGO"> Fast      ! Algorithm for electronic re</i>
  <i type="int" name="ISPIN">     1</i>
  <i type="int" name="NELMIN">     4</i>
  <i name="EDIFF">      0.00000100</i>
  <i type="int" name="NSW">     0</i>
  <i name="ENCUT">    250.00000000</i>
  <i type="int" name="NEDOS">  2401</i>
  <i type="string" name="LREAL"> Auto      ! Projection in reciprocal sp</i>
  <i name="EMIN">    -12.00000000</i>
  <i name="EMAX">     12.00000000</i>
  <i type="int" name="ISMEAR">     0</i>
  <i name="SIGMA">      0.20000000</i>
  <i type="logical" name="LWAVE"> F  </i>
  <i type="int" name="LORBIT">    11</i>
  <i type="logical" name="LELF"> T  </i>
  <v type="int" name="KPOINT_BSE">    -1     0     0     0</v>
 </incar>
 <structure name="primitive_cell" >
  <crystal>
   <varray name="basis" >
    <v>       3.19031573       0.00000000       0.00000000 </v>
    <v>      -1.59515786       2.76289447       0.00000000 </v>
    <v>       0.00000000       0.00000000      40.87900430 </v>
   </varray>
   <i name="volume">    360.32821570 </i>
   <varray name="rec_basis" >
    <v>       0.31344860       0.18096963       0.00000000 </v>
    <v>       0.00000000       0.36193927       0.00000000 </v>
    <v>       0.00000000       0.00000000       0.02446244 </v>
   </varray>
  </crystal>
  <varray name="positions" >
   <v>       0.33333300      -0.33333300       0.09099417 </v>
   <v>      -0.33333400       0.33333300       0.12927505 </v>
   <v>      -0.33333300       0.33333300       0.05271329 </v>
  </varray>
 </structure>
 <varray name="primitive_index" >
  <v type="int" >        1 </v>
  <v type="int" >        3 </v>
  <v type="int" >        2 </v>
 </varray>
 <kpoints>
  <generation param="Gamma">
   <v type="int" name="divisions">       8        8        1 </v>
   <v name="usershift">      0.00000000       0.00000000       0.00000000 </v>
   <v name="genvec1">      0.12500000       0.00000000       0.00000000 </v>
   <v name="genvec2">      0.00000000       0.12500000       0.00000000 </v>
   <v name="genvec3">      0.00000000       0.00000000       1.00000000 </v>
   <v name="shift">      0.00000000       0.00000000       0.00000000 </v>
  </generation>
  <varray name="kpointlist" >
   <v>       0.00000000       0.00000000       0.00000000 </v>
   <v>       0.12500000       0.00000000       0.00000000 </v>
   <v>       0.25000000       0.00000000       0.00000000 </v>
   <v>       0.37500000      -0.00000000       0.00000000 </v>
   <v>       0.50000000       0.00000000       0.00000000 </v>
   <v>       0.12500000       0.12500000       0.00000000 </v>
   <v>       0.25000000       0.12500000       0.00000000 </v>
   <v>       0.37500000       0.12500000       0.00000000 </v>
   <v>       0.25000000       0.25000000       0.00000000 </v>
   <v>       0.37500000       0.25000000       0.00000000 </v>
  </varray>
  <varray name="weights" >
   <v>       0.01562500 </v>
   <v>       0.09375000 </v>
   <v>       0.09375000 </v>
   <v>       0.09375000 </v>
   <v>       0.04687500 </v>
   <v>       0.09375000 </v>
   <v>       0.18750000 </v>
   <v>       0.18750000 </v>
   <v>       0.09375000 </v>
   <v>       0.09375000 </v>
  </varray>
 </kpoints>
 <parameters>
  <separator name="general" >
   <i type="string" name="SYSTEM">unknown system</i>
   <i type="logical" name="LCOMPAT"> F  </i>
  </separator>
  <separator name="electronic" >
   <i type="string" name="PREC">normal</i>
   <i name="ENMAX">    250.00000000</i>
   <i name="ENAUG">    345.27800000</i>
   <i name="EDIFF">      0.00000100</i>
   <i type="int" name="IALGO">    68</i>
   <i type="int" name="IWAVPR">    10</i>
   <i type="int" name="NBANDS">    14</i>
   <i name="NELECT">     18.00000000</i>
   <i type="int" name="TURBO">     0</i>
   <i type="int" name="IRESTART">     0</i>
   <i type="int" name="NREBOOT">     0</i>
   <i type="int" name="NMIN">     0</i>
   <i name="EREF">      0.00000000</i>
   <separator name="electronic smearing" >
    <i type="int" name="ISMEAR">     0</i>
    <i name="SIGMA">      0.20000000</i>
    <i name="KSPACING">      0.50000000</i>
    <i type="logical" name="KGAMMA"> T  </i>
   </separator>
   <separator name="electronic projectors" >
    <i type="logical" name="LREAL"> T  </i>
    <v name="ROPT">     -0.00050000     -0.00050000</v>
    <i type="int" name="LMAXPAW">  -100</i>
    <i type="int" name="LMAXMIX">     2</i>
    <i type="logical" name="NLSPLINE"> F  </i>
   </separator>
   <separator name="electronic startup" >
    <i type="int" name="ISTART">     0</i>
    <i type="int" name="ICHARG">     2</i>
    <i type="int" name="INIWAV">     1</i>
   </separator>
   <separator name="electronic spin" >
    <i type="int" name="ISPIN">     1</i>
    <i type="logical" name="LNONCOLLINEAR"> F  </i>
    <v name="MAGMOM">      1.00000000      1.00000000      1.00000000</v>
    <i name="NUPDOWN">     -1.00000000</i>
    <i type="logical" name="LSORBIT"> F  </i>
    <v name="SAXIS">      0.00000000      0.00000000      1.00000000</v>
    <i type="logical" name="LSPIRAL"> F  </i>
    <v name="QSPIRAL">      0.00000000      0.00000000      0.00000000</v>
    <i type="logical" name="LZEROZ"> F  </i>
   </separator>
   <separator name="electronic exchange-correlation" >
    <i type="logical" name="LASPH"> F  </i>
    <i type="logical" name="LMETAGGA"> F  </i>
   </separator>
   <separator name="electronic convergence" >
    <i type="int" name="NELM">    60</i>
    <i type="int" name="NELMDL">    -5</i>
    <i type="int" name="NELMIN">     4</i>
    <i name="ENINI">    250.00000000</i>
    <separator name="electronic convergence detail" >
     <i type="logical" name="LDIAG"> T  </i>
     <i type="logical" name="LSUBROT"> F  </i>
     <i name="WEIMIN">      0.00000000</i>
     <i name="EBREAK">      0.00000002</i>
     <i name="DEPER">      0.30000000</i>
     <i type="int" name="NRMM">     4</i>
     <i name="TIME">      0.40000000</i>
    </separator>
   </separator>
   <separator name="electronic mixer" >
    <i name="AMIX">      0.40000000</i>
    <i name="BMIX">      1.00000000</i>
    <i name="AMIN">      0.10000000</i>
    <i name="AMIX_MAG">      1.60000000</i>
    <i name="BMIX_MAG">      1.00000000</i>
    <separator name="electronic mixer details" >
     <i type="int" name="IMIX">     4</i>
     <i type="logical" name="MIXFIRST"> F  </i>
     <i type="int" name="MAXMIX">   -45</i>
     <i name="WC">    100.00000000</i>
     <i type="int" name="INIMIX">     1</i>
     <i type="int" name="MIXPRE">     1</i>
     <i type="int" name="MREMOVE">     5</i>
    </separator>
   </separator>
   <separator name="electronic dipolcorrection" >
    <i type="logical" name="LDIPOL"> F  </i>
    <i type="logical" name="LMONO"> F  </i>
    <i type="int" name="IDIPOL">     0</i>
    <i name="EPSILON">      1.00000000</i>
    <v name="DIPOL">   -100.00000000   -100.00000000   -100.00000000</v>
    <i name="EFIELD">      0.00000000</i>
   </separator>
  </separator>
  <separator name="grids" >
   <i type="int" name="NGX">    12</i>
   <i type="int" name="NGY">    12</i>
   <i type="int" name="NGZ">   160</i>
   <i type="int" name="NGXF">    24</i>
   <i type="int" name="NGYF">    24</i>
   <i type="int" name="NGZF">   320</i>
   <i type="logical" name="ADDGRID"> F  </i>
  </separator>
  <separator name="ionic" >
   <i type="int" name="NSW">     0</i>
   <i type="int" name="IBRION">    -1</i>
   <i type="int" name="MDALGO">     0</i>
   <i type="int" name="ISIF">     2</i>
   <i name="PSTRESS">      0.00000000</i>
   <i name="EDIFFG">      0.00001000</i>
   <i type="int" name="NFREE">     0</i>
   <i name="POTIM">      0.50000000</i>
   <i name="SMASS">     -3.00000000</i>
   <i name="SCALEE">      1.00000000</i>
  </separator>
  <separator name="ionic md" >
   <i name="TEBEG">      0.00010000</i>
   <i name="TEEND">      0.00010000</i>
   <i type="int" name="NBLOCK">     1</i>
   <i type="int" name="KBLOCK">     1</i>
   <i type="int" name="NPACO">   256</i>
   <i name="APACO">     16.00000000</i>
  </separator>
  <separator name="symmetry" >
   <i type="int" name="ISYM">     2</i>
   <i name="SYMPREC">      0.00001000</i>
  </separator>
  <separator name="dos" >
   <i type="int" name="LORBIT">    11</i>
   <v name="RWIGS">     -1.00000000     -1.00000000</v>
   <i type="int" name="NEDOS">  2401</i>
   <i name="EMIN">    -12.00000000</i>
   <i name="EMAX">     12.00000000</i>
   <i name="EFERMI">      0.00000000</i>
  </separator>
  <separator name="writing" >
   <i type="int" name="NWRITE">     2</i>
   <i type="logical" name="LWAVE"> F  </i>
   <i type="logical" name="LDOWNSAMPLE"> F  </i>
   <i type="logical" name="LCHARG"> T  </i>
   <i type="logical" name="LPARD"> F  </i>
   <i type="logical" name="LVTOT"> F  </i>
   <i type="logical" name="LVHAR"> F  </i>
   <i type="logical" name="LELF"> T  </i>
   <i type="logical" name="LOPTICS"> F  </i>
   <v name="STM">      0.00000000      0.00000000      0.00000000      0.00000000      0.00000000      0.00000000      0.00000000</v>
  </separator>
  <separator name="performance" >
   <i type="int" name="NPAR">     2</i>
   <i type="int" name="NSIM">     4</i>
   <i type="int" name="NBLK">    -1</i>
   <i type="logical" name="LPLANE"> T  </i>
   <i type="logical" name="LSCALAPACK"> T  </i>
   <i type="logical" name="LSCAAWARE"> F  </i>
   <i type="logical" name="LSCALU"> F  </i>
   <i type="logical" name="LASYNC"> F  </i>
   <i type="logical" name="LORBITALREAL"> F  </i>
  </separator>
  <separator name="miscellaneous" >
   <i type="int" name="IDIOT">     3</i>
   <i type="int" name="ISPECIAL">     0</i>
   <i type="logical" name="LMUSIC"> F  </i>
   <v name="POMASS">     95.94000000     32.06600000</v>
   <v name="DARWINR">      0.00000000      0.00000000</v>
   <v name="DARWINV">      1.00000000      1.00000000</v>
   <i type="logical" name="LCORR"> T  </i>
  </separator>
  <i type="logical" name="GGA_COMPAT"> T  </i>
  <i type="logical" name="LBERRY"> F  </i>
  <i type="int" name="ICORELEVEL">     0</i>
  <i type="logical" name="LDAU"> F  </i>
  <i type="int" name="I_CONSTRAINED_M">     0</i>
  <separator name="electronic exchange-correlation" >
   <i type="string" name="GGA">--</i>
   <i type="int" name="VOSKOWN">     0</i>
   <i type="logical" name="LHFCALC"> F  </i>
   <i type="string" name="PRECFOCK"></i>
   <i type="logical" name="LSYMGRAD"> F  </i>
   <i type="logical" name="LHFONE"> F  </i>
   <i type="logical" name="LRHFCALC"> F  </i>
   <i type="logical" name="LTHOMAS"> F  </i>
   <i type="logical" name="LMODELHF"> F  </i>
   <i name="ENCUT4O">     -1.00000000</i>
   <i type="int" name="EXXOEP">     0</i>
   <i type="int" name="FOURORBIT">     0</i>
   <i name="AEXX">      0.00000000</i>
   <i name="HFALPHA">      0.00000000</i>
   <i name="MCALPHA">      0.00000000</i>
   <i name="ALDAX">      1.00000000</i>
   <i name="AGGAX">      1.00000000</i>
   <i name="ALDAC">      1.00000000</i>
   <i name="AGGAC">      1.00000000</i>
   <i type="int" name="NKREDX">     1</i>
   <i type="int" name="NKREDY">     1</i>
   <i type="int" name="NKREDZ">     1</i>
   <i type="logical" name="SHIFTRED"> F  </i>
   <i type="logical" name="ODDONLY"> F  </i>
   <i type="logical" name="EVENONLY"> F  </i>
   <i type="int" name="LMAXFOCK">     0</i>
   <i type="int" name="NMAXFOCKAE">     0</i>
   <i type="logical" name="LFOCKAEDFT"> F  </i>
   <i name="HFSCREEN">      0.00000000</i>
   <i name="HFSCREENC">      0.00000000</i>
   <i type="int" name="NBANDSGWLOW">     0</i>
  </separator>
  <separator name="vdW DFT" >
   <i type="logical" name="LUSE_VDW"> F  </i>
   <i name="Zab_VDW">     -0.84910000</i>
   <i name="PARAM1">      0.12340000</i>
   <i name="PARAM2">      1.00000000</i>
   <i name="PARAM3">      0.00000000</i>
  </separator>
  <separator name="model GW" >
   <i type="int" name="MODEL_GW">     0</i>
   <i name="MODEL_EPS0">     72.06564314</i>
   <i name="MODEL_ALPHA">      1.00000000</i>
  </separator>
  <separator name="linear response parameters" >
   <i type="logical" name="LEPSILON"> F  </i>
   <i type="logical" name="LRPA"> F  </i>
   <i type="logical" name="LNABLA"> F  </i>
   <i type="logical" name="LVEL"> F  </i>
   <i type="int" name="KINTER">     0</i>
   <i name="CSHIFT">      0.10000000</i>
   <i name="OMEGAMAX">     -1.00000000</i>
   <i name="DEG_THRESHOLD">      0.00200000</i>
   <i name="RTIME">     -0.10000000</i>
   <i name="WPLASMAI">      0.00000000</i>
   <v name="DFIELD">      0.00000000      0.00000000      0.00000000</v>
   <v name="WPLASMA">      0.00000000      0.00000000      0.00000000      0.00000000      0.00000000      0.00000000      0.00000000      0.00000000      0.00000000</v>
  </separator>
  <separator name="orbital magnetization" >
   <i type="logical" name="NUCIND"> F  </i>
   <v name="MAGPOS">      0.00000000      0.00000000      0.00000000</v>
   <i type="logical" name="LNICSALL"> T  </i>
   <i type="logical" name="ORBITALMAG"> F  </i>
   <i type="logical" name="LMAGBLOCH"> F  </i>
   <i type="logical" name="LCHIMAG"> F  </i>
   <i type="logical" name="LGAUGE"> T  </i>
   <i type="int" name="MAGATOM">     0</i>
   <v name="MAGDIPOL">      0.00000000      0.00000000      0.00000000</v>
   <v name="AVECCONST">      0.00000000      0.00000000      0.00000000</v>
  </separator>
  <separator name="response functions" >
   <i type="logical" name="LADDER"> F  </i>
   <i type="logical" name="LRPAFORCE"> F  </i>
   <i type="logical" name="LFXC"> F  </i>
   <i type="logical" name="LHARTREE"> T  </i>
   <i type="int" name="IBSE">     0</i>
   <v type="int" name="KPOINT">    -1     0     0     0</v>
   <i type="logical" name="LTCTE"> F  </i>
   <i type="logical" name="LTETE"> F  </i>
   <i type="logical" name="LTRIPLET"> F  </i>
   <i type="logical" name="LFXCEPS"> F  </i>
   <i type="logical" name="LFXHEG"> F  </i>
   <i type="int" name="NATURALO">     2</i>
   <i type="logical" name="L2ORDER"> F  </i>
   <i type="logical" name="LMP2LT"> F  </i>
   <i type="logical" name="LUSEW"> F  </i>
   <i name="ENCUTGW">     -2.00000000</i>
   <i name="ENCUTGWSOFT">     -2.00000000</i>
   <i name="ENCUTLF">     -1.00000000</i>
   <i type="int" name="LMAXMP2">    -1</i>
   <i name="SCISSOR">      0.00000000</i>
   <i type="int" name="NOMEGA">     0</i>
   <i type="int" name="NOMEGAR">     0</i>
   <i type="int" name="NBANDSGW">    -1</i>
   <i type="int" name="NBANDSO">    -1</i>
   <i type="int" name="NBANDSV">    -1</i>
   <i type="int" name="NELM">     1</i>
   <i type="int" name="NELMHF">     1</i>
   <i type="int" name="DIM">     3</i>
   <i type="int" name="ANTIRES">     0</i>
   <i name="OMEGAMAX">    -30.00000000</i>
   <i name="OMEGAMIN">    -30.00000000</i>
   <i name="OMEGATL">   -200.00000000</i>
   <i type="int" name="OMEGAGRID">   140</i>
   <i name="CSHIFT">     -0.10000000</i>
   <i type="logical" name="SELFENERGY"> F  </i>
   <i type="logical" name="LSPECTRAL"> F  </i>
   <i type="logical" name="LSPECTRALGW"> F  </i>
   <i type="logical" name="LSINGLES"> F  </i>
   <i type="logical" name="LFERMIGW"> F  </i>
   <i type="logical" name="ODDONLYGW"> F  </i>
   <i type="logical" name="EVENONLYGW"> F  </i>
   <i type="int" name="NKREDLFX">     1</i>
   <i type="int" name="NKREDLFY">     1</i>
   <i type="int" name="NKREDLFZ">     1</i>
   <i type="int" name="MAXMEM">  2800</i>
   <i type="int" name="TELESCOPE">     0</i>
   <i type="int" name="TAUPAR">     1</i>
   <i type="int" name="OMEGAPAR">    -1</i>
   <i name="LAMBDA">      1.00000000</i>
  </separator>
  <separator name="External order field" >
   <i name="OFIELD_KAPPA">      0.00000000</i>
   <v name="OFIELD_K">      0.00000000      0.00000000      0.00000000</v>
   <i name="OFIELD_Q6_NEAR">      0.00000000</i>
   <i name="OFIELD_Q6_FAR">      0.00000000</i>
   <i name="OFIELD_A">      0.00000000</i>
  </separator>
 </parameters>
 <atominfo>
  <atoms>       3 </atoms>
  <types>       2 </types>
  <array name="atoms" >
   <dimension dim="1">ion</dimension>
   <field type="string">element</field>
   <field type="int">atomtype</field>
   <set>
    <rc><c>Mo</c><c>   1</c></rc>
    <rc><c>S </c><c>   2</c></rc>
    <rc><c>S </c><c>   2</c></rc>
   </set>
  </array>
  <array name="atomtypes" >
   <dimension dim="1">type</dimension>
   <field type="int">atomspertype</field>
   <field type="string">element</field>
   <field>mass</field>
   <field>valence</field>
   <field type="string">pseudopotential</field>
   <set>
    <rc><c>   1</c><c>Mo</c><c>     95.94000000</c><c>      6.00000000</c><c> PAW_PBE Mo 08Apr2002                   </c></rc>
    <rc><c>   2</c><c>S </c><c>     32.06600000</c><c>      6.00000000</c><c>  PAW_PBE S 17Jan2003                   </c></rc>
   </set>
  </array>
 </atominfo>
 <structure name="initialpos" >
  <crystal>
   <varray name="basis" >
    <v>       3.19031573       0.00000000       0.00000000 </v>
    <v>      -1.59515786       2.76289447       0.00000000 </v>
    <v>       0.00000000       0.00000000      40.87900430 </v>
   </varray>
   <i name="volume">    360.32821570 </i>
   <varray name="rec_basis" >
    <v>       0.31344860       0.18096963       0.00000000 </v>
    <v>       0.00000000       0.36193927       0.00000000 </v>
    <v>       0.00000000       0.00000000       0.02446244 </v>
   </varray>
  </crystal>
  <varray name="positions" >
   <v>       0.33333300       0.66666700       0.09099417 </v>
   <v>       0.66666700       0.33333300       0.05271329 </v>
   <v>       0.66666600       0.33333300       0.12927505 </v>
  </varray>
 </structure>
 <calculation>
  <scstep>
   <time name="dav">    0.16    0.16</time>
   <time name="total">    0.19    0.21</time>
   <energy>
    <i name="alphaZ">      8.22821845 </i>
    <i name="ewald">   8097.06046244 </i>
    <i name="hartreedc">  -8757.59954085 </i>
    <i name="XCdc">    -36.31055806 </i>
    <i name="pawpsdc">    406.88651198 </i>
    <i name="pawaedc">   -329.34073203 </i>
    <i name="eentropy">     -0.03175641 </i>
    <i name="bandstr">    -78.81463582 </i>
    <i name="atom">    771.06857575 </i>
    <i name="e_fr_energy">     81.14654545 </i>
    <i name="e_wo_entrp">     81.17830186 </i>
    <i name="e_0_energy">     81.16242366 </i>
   </energy>
  </scstep>
  <scstep>
   <time name="dav">    0.20    0.21</time>
   <time name="total">    0.21    0.21</time>
   <energy>
    <i name="e_fr_energy">    -13.31739668 </i>
    <i name="e_wo_entrp">    -13.31739668 </i>
    <i name="e_0_energy">    -13.31739668 </i>
   </energy>
  </scstep>
  <scstep>
   <time name="dav">    0.17    0.17</time>
   <time name="total">    0.17    0.17</time>
   <energy>
    <i name="e_fr_energy">    -23.18572341 </i>
    <i name="e_wo_entrp">    -23.18572341 </i>
    <i name="e_0_energy">    -23.18572341 </i>
   </energy>
  </scstep>
  <scstep>
   <time name="dav">    0.16    0.16</time>
   <time name="total">    0.16    0.16</time>
   <energy>
    <i name="e_fr_energy">    -23.36540988 </i>
    <i name="e_wo_entrp">    -23.36540988 </i>
    <i name="e_0_energy">    -23.36540988 </i>
   </energy>
  </scstep>
  <scstep>
   <time name="dav">    0.17    0.17</time>
   <time name="total">    0.19    0.19</time>
   <energy>
    <i name="e_fr_energy">    -23.37053284 </i>
    <i name="e_wo_entrp">    -23.37053284 </i>
    <i name="e_0_energy">    -23.37053284 </i>
   </energy>
  </scstep>
  <scstep>
   <time name="diag">    0.03    0.03</time>
   <time name="diis">    0.09    0.09</time>
   <time name="orth">    0.00    0.00</time>
   <time name="total">    0.16    0.16</time>
   <energy>
    <i name="e_fr_energy">    -22.20990565 </i>
    <i name="e_wo_entrp">    -22.20990561 </i>
    <i name="e_0_energy">    -22.20990563 </i>
   </energy>
  </scstep>
  <scstep>
   <time name="diag">    0.03    0.03</time>
   <time name="diis">    0.09    0.09</time>
   <time name="orth">    0.00    0.00</time>
   <time name="total">    0.15    0.15</time>
   <energy>
    <i name="e_fr_energy">    -21.82886872 </i>
    <i name="e_wo_entrp">    -21.82886872 </i>
    <i name="e_0_energy">    -21.82886872 </i>
   </energy>
  </scstep>
  <scstep>
   <time name="diag">    0.03    0.03</time>
   <time name="diis">    0.09    0.09</time>
   <time name="orth">    0.00    0.00</time>
   <time name="total">    0.16    0.16</time>
   <energy>
    <i name="e_fr_energy">    -21.76781847 </i>
    <i name="e_wo_entrp">    -21.76781847 </i>
    <i name="e_0_energy">    -21.76781847 </i>
   </energy>
  </scstep>
  <scstep>
   <time name="diag">    0.03    0.03</time>
   <time name="diis">    0.10    0.10</time>
   <time name="orth">    0.00    0.00</time>
   <time name="total">    0.16    0.17</time>
   <energy>
    <i name="e_fr_energy">    -21.76314573 </i>
    <i name="e_wo_entrp">    -21.76314573 </i>
    <i name="e_0_energy">    -21.76314573 </i>
   </energy>
  </scstep>
  <scstep>
   <time name="diag">    0.03    0.03</time>
   <time name="diis">    0.10    0.10</time>
   <time name="orth">    0.00    0.00</time>
   <time name="total">    0.17    0.17</time>
   <energy>
    <i name="e_fr_energy">    -21.76247858 </i>
    <i name="e_wo_entrp">    -21.76247858 </i>
    <i name="e_0_energy">    -21.76247858 </i>
   </energy>
  </scstep>
  <scstep>
   <time name="diag">    0.03    0.03</time>
   <time name="diis">    0.10    0.10</time>
   <time name="orth">    0.00    0.00</time>
   <time name="total">    0.16    0.16</time>
   <energy>
    <i name="e_fr_energy">    -21.76241031 </i>
    <i name="e_wo_entrp">    -21.76241031 </i>
    <i name="e_0_energy">    -21.76241031 </i>
   </energy>
  </scstep>
  <scstep>
   <time name="diag">    0.03    0.03</time>
   <time name="diis">    0.09    0.09</time>
   <time name="orth">    0.00    0.00</time>
   <time name="total">    0.16    0.16</time>
   <energy>
    <i name="e_fr_energy">    -21.76233132 </i>
    <i name="e_wo_entrp">    -21.76233132 </i>
    <i name="e_0_energy">    -21.76233132 </i>
   </energy>
  </scstep>
  <scstep>
   <time name="diag">    0.03    0.03</time>
   <time name="diis">    0.09    0.09</time>
   <time name="orth">    0.00    0.00</time>
   <time name="total">    0.16    0.16</time>
   <energy>
    <i name="e_fr_energy">    -21.76276397 </i>
    <i name="e_wo_entrp">    -21.76276397 </i>
    <i name="e_0_energy">    -21.76276397 </i>
   </energy>
  </scstep>
  <scstep>
   <time name="diag">    0.03    0.03</time>
   <time name="diis">    0.10    0.10</time>
   <time name="orth">    0.00    0.00</time>
   <time name="total">    0.16    0.17</time>
   <energy>
    <i name="e_fr_energy">    -21.76285315 </i>
    <i name="e_wo_entrp">    -21.76285315 </i>
    <i name="e_0_energy">    -21.76285315 </i>
   </energy>
  </scstep>
  <scstep>
   <time name="diag">    0.03    0.03</time>
   <time name="diis">    0.08    0.08</time>
   <time name="orth">    0.00    0.00</time>
   <time name="total">    0.15    0.15</time>
   <energy>
    <i name="e_fr_energy">    -21.76301449 </i>
    <i name="e_wo_entrp">    -21.76301449 </i>
    <i name="e_0_energy">    -21.76301449 </i>
   </energy>
  </scstep>
  <scstep>
   <time name="diag">    0.03    0.03</time>
   <time name="diis">    0.08    0.08</time>
   <time name="orth">    0.00    0.00</time>
   <time name="total">    0.14    0.15</time>
   <energy>
    <i name="e_fr_energy">    -21.76305642 </i>
    <i name="e_wo_entrp">    -21.76305642 </i>
    <i name="e_0_energy">    -21.76305642 </i>
   </energy>
  </scstep>
  <scstep>
   <time name="diag">    0.03    0.03</time>
   <time name="diis">    0.07    0.07</time>
   <time name="orth">    0.00    0.00</time>
   <time name="total">    0.13    0.14</time>
   <energy>
    <i name="e_fr_energy">    -21.76309517 </i>
    <i name="e_wo_entrp">    -21.76309517 </i>
    <i name="e_0_energy">    -21.76309517 </i>
   </energy>
  </scstep>
  <scstep>
   <time name="diag">    0.03    0.03</time>
   <time name="diis">    0.06    0.06</time>
   <time name="orth">    0.00    0.00</time>
   <time name="total">    0.13    0.13</time>
   <energy>
    <i name="e_fr_energy">    -21.76309785 </i>
    <i name="e_wo_entrp">    -21.76309785 </i>
    <i name="e_0_energy">    -21.76309785 </i>
   </energy>
  </scstep>
  <scstep>
   <time name="diag">    0.03    0.03</time>
   <time name="diis">    0.06    0.06</time>
   <time name="orth">    0.00    0.00</time>
   <time name="total">    0.13    0.13</time>
   <energy>
    <i name="e_fr_energy">    -21.76310316 </i>
    <i name="e_wo_entrp">    -21.76310316 </i>
    <i name="e_0_energy">    -21.76310316 </i>
   </energy>
  </scstep>
  <scstep>
   <time name="diag">    0.03    0.03</time>
   <time name="diis">    0.06    0.06</time>
   <time name="orth">    0.00    0.00</time>
   <time name="total">    0.11    0.11</time>
   <energy>
    <i name="alphaZ">      8.22821845 </i>
    <i name="ewald">   8097.06046244 </i>
    <i name="hartreedc">  -8771.63230221 </i>
    <i name="XCdc">    -35.17211203 </i>
    <i name="pawpsdc">    478.68006144 </i>
    <i name="pawaedc">   -402.87105836 </i>
    <i name="eentropy">     -0.00000000 </i>
    <i name="bandstr">   -167.12494959 </i>
    <i name="atom">    771.06857575 </i>
    <i name="e_fr_energy">    -21.76310411 </i>
    <i name="e_wo_entrp">    -21.76310411 </i>
    <i name="e_0_energy">    -21.76310411 </i>
   </energy>
  </scstep>
  <structure>
   <crystal>
    <varray name="basis" >
     <v>       3.19031573       0.00000000       0.00000000 </v>
     <v>      -1.59515786       2.76289447       0.00000000 </v>
     <v>       0.00000000       0.00000000      40.87900430 </v>
    </varray>
    <i name="volume">    360.32821570 </i>
    <varray name="rec_basis" >
     <v>       0.31344860       0.18096963       0.00000000 </v>
     <v>       0.00000000       0.36193927       0.00000000 </v>
     <v>       0.00000000       0.00000000       0.02446244 </v>
    </varray>
   </crystal>
   <varray name="positions" >
    <v>       0.33333300       0.66666700       0.09099417 </v>
    <v>       0.66666700       0.33333300       0.05271329 </v>
    <v>       0.66666600       0.33333300       0.12927505 </v>
   </varray>
  </structure>
  <varray name="forces" >
   <v>       0.00000000      -0.00000000      -0.00000000 </v>
   <v>      -0.00000000       0.00000000       0.10517084 </v>
   <v>      -0.00000000      -0.00000000      -0.10517084 </v>
  </varray>
  <varray name="stress" >
   <v>      -2.71601894      -0.00000000       0.00000000 </v>
   <v>      -0.00000000      -2.71601894       0.00000000 </v>
   <v>       0.00000000      -0.00000000      -3.93367712 </v>
  </varray>
  <energy>
   <i name="e_fr_energy">    -22.35380288 </i>
   <i name="e_wo_entrp">    -22.35380288 </i>
   <i name="e_0_energy">     -0.00000000 </i>
  </energy>
  <time name="totalsc">    3.62    3.87</time>
  <eigenvalues>
   <array>
    <dimension dim="1">band</dimension>
    <dimension dim="2">kpoint</dimension>
    <dimension dim="3">spin</dimension>
    <field>eigene</field>
    <field>occ</field>
    <set>
     <set comment="spin 1">
      <set comment="kpoint 1">
       <r>  -18.3322    1.0000 </r>
       <r>  -17.1239    1.0000 </r>
       <r>   -9.8420    1.0000 </r>
       <r>   -6.8801    1.0000 </r>
       <r>   -6.8799    1.0000 </r>
       <r>   -6.0202    1.0000 </r>
       <r>   -5.7729    1.0000 </r>
       <r>   -5.7724    1.0000 </r>
       <r>   -4.2978    1.0000 </r>
       <r>   -1.5238    0.0000 </r>
       <r>   -1.5231    0.0000 </r>
       <r>   -1.3013    0.0000 </r>
       <r>   -1.3007    0.0000 </r>
       <r>    1.1092    0.0000 </r>
      </set>
      <set comment="kpoint 2">
       <r>  -18.1182    1.0000 </r>
       <r>  -17.0214    1.0000 </r>
       <r>   -9.5972    1.0000 </r>
       <r>   -7.3445    1.0000 </r>
       <r>   -6.8274    1.0000 </r>
       <r>   -6.6459    1.0000 </r>
       <r>   -6.1091    1.0000 </r>
       <r>   -5.3416    1.0000 </r>
       <r>   -4.4366    1.0000 </r>
       <r>   -1.8065    0.0000 </r>
       <r>   -1.7400    0.0000 </r>
       <r>   -1.5383    0.0000 </r>
       <r>   -1.1695    0.0000 </r>
       <r>    1.4778    0.0000 </r>
      </set>
      <set comment="kpoint 3">
       <r>  -17.5496    1.0000 </r>
       <r>  -16.7525    1.0000 </r>
       <r>   -9.2310    1.0000 </r>
       <r>   -8.0727    1.0000 </r>
       <r>   -7.8089    1.0000 </r>
       <r>   -6.7457    1.0000 </r>
       <r>   -6.0599    1.0000 </r>
       <r>   -5.5935    1.0000 </r>
       <r>   -5.0052    1.0000 </r>
       <r>   -2.1307    0.0000 </r>
       <r>   -1.9553    0.0000 </r>
       <r>   -1.4125    0.0000 </r>
       <r>   -0.5545    0.0000 </r>
       <r>    2.3029    0.0000 </r>
      </set>
      <set comment="kpoint 4">
       <r>  -16.8747    1.0000 </r>
       <r>  -16.4439    1.0000 </r>
       <r>   -9.6704    1.0000 </r>
       <r>   -8.6777    1.0000 </r>
       <r>   -8.2039    1.0000 </r>
       <r>   -7.2443    1.0000 </r>
       <r>   -6.0027    1.0000 </r>
       <r>   -5.4699    1.0000 </r>
       <r>   -5.1993    1.0000 </r>
       <r>   -2.1381    0.0000 </r>
       <r>   -1.8581    0.0000 </r>
       <r>   -0.6936    0.0000 </r>
       <r>   -0.1617    0.0000 </r>
       <r>    2.8629    0.0000 </r>
      </set>
      <set comment="kpoint 5">
       <r>  -16.5464    1.0000 </r>
       <r>  -16.3006    1.0000 </r>
       <r>  -10.0034    1.0000 </r>
       <r>   -9.0439    1.0000 </r>
       <r>   -8.3294    1.0000 </r>
       <r>   -7.4250    1.0000 </r>
       <r>   -6.1410    1.0000 </r>
       <r>   -5.2430    1.0000 </r>
       <r>   -4.9178    1.0000 </r>
       <r>   -2.1164    0.0000 </r>
       <r>   -1.6017    0.0000 </r>
       <r>   -0.3938    0.0000 </r>
       <r>   -0.0461    0.0000 </r>
       <r>    1.9086    0.0000 </r>
      </set>
      <set comment="kpoint 6">
       <r>  -17.7255    1.0000 </r>
       <r>  -16.8343    1.0000 </r>
       <r>   -9.2497    1.0000 </r>
       <r>   -7.9098    1.0000 </r>
       <r>   -7.3902    1.0000 </r>
       <r>   -6.9235    1.0000 </r>
       <r>   -6.3073    1.0000 </r>
       <r>   -5.2069    1.0000 </r>
       <r>   -4.8094    1.0000 </r>
       <r>   -2.2057    0.0000 </r>
       <r>   -1.8281    0.0000 </r>
       <r>   -1.8161    0.0000 </r>
       <r>   -0.5755    0.0000 </r>
       <r>    2.0685    0.0000 </r>
      </set>
      <set comment="kpoint 7">
       <r>  -17.0921    1.0000 </r>
       <r>  -16.5357    1.0000 </r>
       <r>   -9.3139    1.0000 </r>
       <r>   -8.3363    1.0000 </r>
       <r>   -8.0730    1.0000 </r>
       <r>   -7.4289    1.0000 </r>
       <r>   -6.2083    1.0000 </r>
       <r>   -5.5699    1.0000 </r>
       <r>   -5.0932    1.0000 </r>
       <r>   -2.2894    0.0000 </r>
       <r>   -1.8426    0.0000 </r>
       <r>   -1.3460    0.0000 </r>
       <r>   -0.0701    0.0000 </r>
       <r>    3.0524    0.0000 </r>
      </set>
      <set comment="kpoint 8">
       <r>  -16.5617    1.0000 </r>
       <r>  -16.2917    1.0000 </r>
       <r>   -9.7158    1.0000 </r>
       <r>   -9.0999    1.0000 </r>
       <r>   -8.2020    1.0000 </r>
       <r>   -7.4465    1.0000 </r>
       <r>   -6.1931    1.0000 </r>
       <r>   -6.0510    1.0000 </r>
       <r>   -4.7663    1.0000 </r>
       <r>   -2.0973    0.0000 </r>
       <r>   -1.5872    0.0000 </r>
       <r>   -0.7219    0.0000 </r>
       <r>   -0.0359    0.0000 </r>
       <r>    2.4335    0.0000 </r>
      </set>
      <set comment="kpoint 9">
       <r>  -16.5767    1.0000 </r>
       <r>  -16.2828    1.0000 </r>
       <r>   -9.3551    1.0000 </r>
       <r>   -9.1499    1.0000 </r>
       <r>   -7.8756    1.0000 </r>
       <r>   -7.4948    1.0000 </r>
       <r>   -7.1756    1.0000 </r>
       <r>   -5.9182    1.0000 </r>
       <r>   -4.7962    1.0000 </r>
       <r>   -2.1481    0.0000 </r>
       <r>   -1.5366    0.0000 </r>
       <r>   -1.2201    0.0000 </r>
       <r>    0.2481    0.0000 </r>
       <r>    3.2643    0.0000 </r>
      </set>
      <set comment="kpoint 10">
       <r>  -16.3417    1.0000 </r>
       <r>  -16.1638    1.0000 </r>
       <r>   -9.5346    1.0000 </r>
       <r>   -9.1859    1.0000 </r>
       <r>   -8.1591    1.0000 </r>
       <r>   -7.4970    1.0000 </r>
       <r>   -7.2689    1.0000 </r>
       <r>   -6.3037    1.0000 </r>
       <r>   -4.4288    1.0000 </r>
       <r>   -2.4745    0.0000 </r>
       <r>   -1.1593    0.0000 </r>
       <r>   -0.9873    0.0000 </r>
       <r>    0.3913    0.0000 </r>
       <r>    2.6775    0.0000 </r>
      </set>
     </set>
    </set>
   </array>
  </eigenvalues>
  <separator name="orbital magnetization" >
   <v name="MAGDIPOLOUT">      0.00000000      0.00000000      0.00000000</v>
  </separator>
  <dos>
   <i name="efermi">     -3.47000000 </i>
   <total>
    <array>
     <dimension dim="1">gridpoints</dimension>
     <dimension dim="2">spin</dimension>
     <field>energy</field>
     <field>total</field>
     <field>integrated</field>
     <set>
      <set comment="spin 1">
       <r>   -12.0000   400.0000     4.0000 </r>
       <r>   -11.9900     0.0000     4.0000 </r>
       <r>   -11.9800     0.0000     4.0000 </r>
       <r>   -11.9700     0.0000     4.0000 </r>
       <r>   -11.9600     0.0000     4.0000 </r>
       <r>   -11.9500     0.0000     4.0000 </r>
       <r>   -11.9400     0.0000     4.0000 </r>
       <r>   -11.9300     0.0000     4.0000 </r>
       <r>   -11.9200     0.0000     4.0000 </r>
       <r>   -11.9100     0.0000     4.0000 </r>
       <r>   -11.9000     0.0000     4.0000 </r>
       <r>   -11.8900     0.0000     4.0000 </r>
       <r>   -11.8800     0.0000     4.0000 </r>
       <r>   -11.8700     0.0000     4.0000 </r>
       <r>   -11.8600     0.0000     4.0000 </r>
       <r>   -11.8500     0.0000     4.0000 </r>
       <r>   -11.8400     0.0000     4.0000 </r>
       <r>   -11.8300     0.0000     4.0000 </r>
       <r>   -11.8200     0.0000     4.0000 </r>
       <r>   -11.8100     0.0000     4.0000 </r>
       <r>   -11.8000     0.0000     4.0000 </r>
       <r>   -11.7900     0.0000     4.0000 </r>
       <r>   -11.7800     0.0000     4.0000 </r>
       <r>   -11.7700     0.0000     4.0000 </r>
       <r>   -11.7600     0.0000     4.0000 </r>
       <r>   -11.7500     0.0000     4.0000 </r>
       <r>   -11.7400     0.0000     4.0000 </r>
       <r>   -11.7300     0.0000     4.0000 </r>
       <r>   -11.7200     0.0000     4.0000 </r>
       <r>   -11.7100     0.0000     4.0000 </r>
       <r>   -11.7000     0.0000     4.0000 </r>
       <r>   -11.6900     0.0000     4.0000 </r>
       <r>   -11.6800     0.0000     4.0000 </r>
       <r>   -11.6700     0.0000     4.0000 </r>
       <r>   -11.6600     0.0000     4.0000 </r>
       <r>   -11.6500     0.0000     4.0000 </r>
       <r>   -11.6400     0.0000     4.0000 </r>
       <r>   -11.6300     0.0000     4.0000 </r>
       <r>   -11.6200     0.0000     4.0000 </r>
       <r>   -11.6100     0.0000     4.0000 </r>
       <r>   -11.6000     0.0000     4.0000 </r>
       <r>   -11.5900     0.0000     4.0000 </r>
       <r>   -11.5800     0.0000     4.0000 </r>
       <r>   -11.5700     0.0000     4.0000 </r>
       <r>   -11.5600     0.0000     4.0000 </r>
       <r>   -11.5500     0.0000     4.0000 </r>
       <r>   -11.5400     0.0000     4.0000 </r>
       <r>   -11.5300     0.0000     4.0000 </r>
       <r>   -11.5200     0.0000     4.0000 </r>
       <r>   -11.5100     0.0000     4.0000 </r>
       <r>   -11.5000     0.0000     4.0000 </r>
       <r>   -11.4900     0.0000     4.0000 </r>
       <r>   -11.4800     0.0000     4.0000 </r>
       <r>   -11.4700     0.0000     4.0000 </r>
       <r>   -11.4600     0.0000     4.0000 </r>
       <r>   -11.4500     0.0000     4.0000 </r>
       <r>   -11.4400     0.0000     4.0000 </r>
       <r>   -11.4300     0.0000     4.0000 </r>
       <r>   -11.4200     0.0000     4.0000 </r>
       <r>   -11.4100     0.0000     4.0000 </r>
       <r>   -11.4000     0.0000     4.0000 </r>
       <r>   -11.3900     0.0000     4.0000 </r>
       <r>   -11.3800     0.0000     4.0000 </r>
       <r>   -11.3700     0.0000     4.0000 </r>
       <r>   -11.3600     0.0000     4.0000 </r>
       <r>   -11.3500     0.0000     4.0000 </r>
       <r>   -11.3400     0.0000     4.0000 </r>
       <r>   -11.3300     0.0000     4.0000 </r>
       <r>   -11.3200     0.0000     4.0000 </r>
       <r>   -11.3100     0.0000     4.0000 </r>
       <r>   -11.3000     0.0000     4.0000 </r>
       <r>   -11.2900     0.0000     4.0000 </r>
       <r>   -11.2800     0.0000     4.0000 </r>
       <r>   -11.2700     0.0000     4.0000 </r>
       <r>   -11.2600     0.0000     4.0000 </r>
       <r>   -11.2500     0.0000     4.0000 </r>
       <r>   -11.2400     0.0000     4.0000 </r>
       <r>   -11.2300     0.0000     4.0000 </r>
       <r>   -11.2200     0.0000     4.0000 </r>
       <r>   -11.2100     0.0000     4.0000 </r>
       <r>   -11.2000     0.0000     4.0000 </r>
       <r>   -11.1900     0.0000     4.0000 </r>
       <r>   -11.1800     0.0000     4.0000 </r>
       <r>   -11.1700     0.0000     4.0000 </r>
       <r>   -11.1600     0.0000     4.0000 </r>
       <r>   -11.1500     0.0000     4.0000 </r>
       <r>   -11.1400     0.0000     4.0000 </r>
       <r>   -11.1300     0.0000     4.0000 </r>
       <r>   -11.1200     0.0000     4.0000 </r>
       <r>   -11.1100     0.0000     4.0000 </r>
       <r>   -11.1000     0.0000     4.0000 </r>
       <r>   -11.0900     0.0000     4.0000 </r>
       <r>   -11.0800     0.0000     4.0000 </r>
       <r>   -11.0700     0.0000     4.0000 </r>
       <r>   -11.0600     0.0000     4.0000 </r>
       <r>   -11.0500     0.0000     4.0000 </r>
       <r>   -11.0400     0.0000     4.0000 </r>
       <r>   -11.0300     0.0000     4.0000 </r>
       <r>   -11.0200     0.0000     4.0000 </r>
       <r>   -11.0100     0.0000     4.0000 </r>
       <r>   -11.0000     0.0000     4.0000 </r>
       <r>   -10.9900     0.0000     4.0000 </r>
       <r>   -10.9800     0.0000     4.0000 </r>
       <r>   -10.9700     0.0000     4.0000 </r>
       <r>   -10.9600     0.0000     4.0000 </r>
       <r>   -10.9500     0.0000     4.0000 </r>
       <r>   -10.9400     0.0000     4.0000 </r>
       <r>   -10.9300     0.0000     4.0000 </r>
       <r>   -10.9200     0.0000     4.0000 </r>
       <r>   -10.9100     0.0000     4.0000 </r>
       <r>   -10.9000     0.0000     4.0000 </r>
       <r>   -10.8900     0.0000     4.0000 </r>
       <r>   -10.8800     0.0000     4.0000 </r>
       <r>   -10.8700     0.0000     4.0000 </r>
       <r>   -10.8600     0.0000     4.0000 </r>
       <r>   -10.8500     0.0000     4.0000 </r>
       <r>   -10.8400     0.0000     4.0000 </r>
       <r>   -10.8300     0.0000     4.0000 </r>
       <r>   -10.8200     0.0000     4.0000 </r>
       <r>   -10.8100     0.0000     4.0000 </r>
       <r>   -10.8000     0.0000     4.0000 </r>
       <r>   -10.7900     0.0000     4.0000 </r>
       <r>   -10.7800     0.0000     4.0000 </r>
       <r>   -10.7700     0.0000     4.0000 </r>
       <r>   -10.7600     0.0000     4.0000 </r>
       <r>   -10.7500     0.0000     4.0000 </r>
       <r>   -10.7400     0.0000     4.0000 </r>
       <r>   -10.7300     0.0000     4.0000 </r>
       <r>   -10.7200     0.0000     4.0000 </r>
       <r>   -10.7100     0.0000     4.0000 </r>
       <r>   -10.7000     0.0000     4.0000 </r>
       <r>   -10.6900     0.0000     4.0000 </r>
       <r>   -10.6800     0.0000     4.0000 </r>
       <r>   -10.6700     0.0000     4.0000 </r>
       <r>   -10.6600     0.0000     4.0000 </r>
       <r>   -10.6500     0.0000     4.0000 </r>
       <r>   -10.6400     0.0000     4.0000 </r>
       <r>   -10.6300     0.0000     4.0000 </r>
       <r>   -10.6200     0.0000     4.0000 </r>
       <r>   -10.6100     0.0000     4.0000 </r>
       <r>   -10.6000     0.0000     4.0000 </r>
       <r>   -10.5900     0.0000     4.0000 </r>
       <r>   -10.5800     0.0001     4.0000 </r>
       <r>   -10.5700     0.0001     4.0000 </r>
       <r>   -10.5600     0.0001     4.0000 </r>
       <r>   -10.5500     0.0001     4.0000 </r>
       <r>   -10.5400     0.0002     4.0000 </r>
       <r>   -10.5300     0.0002     4.0000 </r>
       <r>   -10.5200     0.0003     4.0000 </r>
       <r>   -10.5100     0.0004     4.0000 </r>
       <r>   -10.5000     0.0005     4.0000 </r>
       <r>   -10.4900     0.0006     4.0000 </r>
       <r>   -10.4800     0.0008     4.0000 </r>
       <r>   -10.4700     0.0010     4.0000 </r>
       <r>   -10.4600     0.0013     4.0001 </r>
       <r>   -10.4500     0.0016     4.0001 </r>
       <r>   -10.4400     0.0020     4.0001 </r>
       <r>   -10.4300     0.0025     4.0001 </r>
       <r>   -10.4200     0.0031     4.0002 </r>
       <r>   -10.4100     0.0039     4.0002 </r>
       <r>   -10.4000     0.0047     4.0002 </r>
       <r>   -10.3900     0.0058     4.0003 </r>
       <r>   -10.3800     0.0070     4.0004 </r>
       <r>   -10.3700     0.0085     4.0005 </r>
       <r>   -10.3600     0.0102     4.0006 </r>
       <r>   -10.3500     0.0122     4.0007 </r>
       <r>   -10.3400     0.0145     4.0008 </r>
       <r>   -10.3300     0.0172     4.0010 </r>
       <r>   -10.3200     0.0203     4.0012 </r>
       <r>   -10.3100     0.0239     4.0014 </r>
       <r>   -10.3000     0.0279     4.0017 </r>
       <r>   -10.2900     0.0324     4.0020 </r>
       <r>   -10.2800     0.0375     4.0024 </r>
       <r>   -10.2700     0.0432     4.0028 </r>
       <r>   -10.2600     0.0495     4.0033 </r>
       <r>   -10.2500     0.0565     4.0039 </r>
       <r>   -10.2400     0.0641     4.0045 </r>
       <r>   -10.2300     0.0725     4.0053 </r>
       <r>   -10.2200     0.0817     4.0061 </r>
       <r>   -10.2100     0.0916     4.0070 </r>
       <r>   -10.2000     0.1022     4.0080 </r>
       <r>   -10.1900     0.1136     4.0092 </r>
       <r>   -10.1800     0.1258     4.0104 </r>
       <r>   -10.1700     0.1387     4.0118 </r>
       <r>   -10.1600     0.1524     4.0133 </r>
       <r>   -10.1500     0.1668     4.0150 </r>
       <r>   -10.1400     0.1819     4.0168 </r>
       <r>   -10.1300     0.1978     4.0188 </r>
       <r>   -10.1200     0.2144     4.0209 </r>
       <r>   -10.1100     0.2317     4.0233 </r>
       <r>   -10.1000     0.2497     4.0258 </r>
       <r>   -10.0900     0.2684     4.0284 </r>
       <r>   -10.0800     0.2880     4.0313 </r>
       <r>   -10.0700     0.3083     4.0344 </r>
       <r>   -10.0600     0.3296     4.0377 </r>
       <r>   -10.0500     0.3519     4.0412 </r>
       <r>   -10.0400     0.3753     4.0450 </r>
       <r>   -10.0300     0.4000     4.0490 </r>
       <r>   -10.0200     0.4261     4.0532 </r>
       <r>   -10.0100     0.4537     4.0578 </r>
       <r>   -10.0000     0.4832     4.0626 </r>
       <r>    -9.9900     0.5146     4.0677 </r>
       <r>    -9.9800     0.5482     4.0732 </r>
       <r>    -9.9700     0.5842     4.0791 </r>
       <r>    -9.9600     0.6229     4.0853 </r>
       <r>    -9.9500     0.6644     4.0919 </r>
       <r>    -9.9400     0.7090     4.0990 </r>
       <r>    -9.9300     0.7568     4.1066 </r>
       <r>    -9.9200     0.8079     4.1147 </r>
       <r>    -9.9100     0.8624     4.1233 </r>
       <r>    -9.9000     0.9205     4.1325 </r>
       <r>    -9.8900     0.9820     4.1423 </r>
       <r>    -9.8800     1.0470     4.1528 </r>
       <r>    -9.8700     1.1152     4.1639 </r>
       <r>    -9.8600     1.1864     4.1758 </r>
       <r>    -9.8500     1.2605     4.1884 </r>
       <r>    -9.8400     1.3370     4.2018 </r>
       <r>    -9.8300     1.4156     4.2159 </r>
       <r>    -9.8200     1.4957     4.2309 </r>
       <r>    -9.8100     1.5769     4.2467 </r>
       <r>    -9.8000     1.6584     4.2633 </r>
       <r>    -9.7900     1.7398     4.2807 </r>
       <r>    -9.7800     1.8203     4.2989 </r>
       <r>    -9.7700     1.8993     4.3178 </r>
       <r>    -9.7600     1.9762     4.3376 </r>
       <r>    -9.7500     2.0501     4.3581 </r>
       <r>    -9.7400     2.1206     4.3793 </r>
       <r>    -9.7300     2.1871     4.4012 </r>
       <r>    -9.7200     2.2489     4.4237 </r>
       <r>    -9.7100     2.3057     4.4467 </r>
       <r>    -9.7000     2.3570     4.4703 </r>
       <r>    -9.6900     2.4027     4.4943 </r>
       <r>    -9.6800     2.4424     4.5188 </r>
       <r>    -9.6700     2.4762     4.5435 </r>
       <r>    -9.6600     2.5040     4.5686 </r>
       <r>    -9.6500     2.5261     4.5938 </r>
       <r>    -9.6400     2.5428     4.6192 </r>
       <r>    -9.6300     2.5543     4.6448 </r>
       <r>    -9.6200     2.5613     4.6704 </r>
       <r>    -9.6100     2.5642     4.6960 </r>
       <r>    -9.6000     2.5639     4.7217 </r>
       <r>    -9.5900     2.5609     4.7473 </r>
       <r>    -9.5800     2.5562     4.7729 </r>
       <r>    -9.5700     2.5507     4.7984 </r>
       <r>    -9.5600     2.5451     4.8238 </r>
       <r>    -9.5500     2.5404     4.8492 </r>
       <r>    -9.5400     2.5375     4.8746 </r>
       <r>    -9.5300     2.5372     4.9000 </r>
       <r>    -9.5200     2.5404     4.9254 </r>
       <r>    -9.5100     2.5477     4.9508 </r>
       <r>    -9.5000     2.5599     4.9764 </r>
       <r>    -9.4900     2.5775     5.0022 </r>
       <r>    -9.4800     2.6010     5.0282 </r>
       <r>    -9.4700     2.6308     5.0545 </r>
       <r>    -9.4600     2.6669     5.0812 </r>
       <r>    -9.4500     2.7096     5.1083 </r>
       <r>    -9.4400     2.7588     5.1359 </r>
       <r>    -9.4300     2.8143     5.1640 </r>
       <r>    -9.4200     2.8758     5.1928 </r>
       <r>    -9.4100     2.9428     5.2222 </r>
       <r>    -9.4000     3.0147     5.2524 </r>
       <r>    -9.3900     3.0910     5.2833 </r>
       <r>    -9.3800     3.1708     5.3150 </r>
       <r>    -9.3700     3.2532     5.3475 </r>
       <r>    -9.3600     3.3373     5.3809 </r>
       <r>    -9.3500     3.4222     5.4151 </r>
       <r>    -9.3400     3.5067     5.4502 </r>
       <r>    -9.3300     3.5899     5.4861 </r>
       <r>    -9.3200     3.6706     5.5228 </r>
       <r>    -9.3100     3.7478     5.5603 </r>
       <r>    -9.3000     3.8206     5.5985 </r>
       <r>    -9.2900     3.8878     5.6373 </r>
       <r>    -9.2800     3.9486     5.6768 </r>
       <r>    -9.2700     4.0021     5.7169 </r>
       <r>    -9.2600     4.0475     5.7573 </r>
       <r>    -9.2500     4.0841     5.7982 </r>
       <r>    -9.2400     4.1112     5.8393 </r>
       <r>    -9.2300     4.1283     5.8806 </r>
       <r>    -9.2200     4.1350     5.9219 </r>
       <r>    -9.2100     4.1311     5.9632 </r>
       <r>    -9.2000     4.1162     6.0044 </r>
       <r>    -9.1900     4.0903     6.0453 </r>
       <r>    -9.1800     4.0533     6.0858 </r>
       <r>    -9.1700     4.0055     6.1259 </r>
       <r>    -9.1600     3.9470     6.1654 </r>
       <r>    -9.1500     3.8782     6.2041 </r>
       <r>    -9.1400     3.7995     6.2421 </r>
       <r>    -9.1300     3.7114     6.2792 </r>
       <r>    -9.1200     3.6145     6.3154 </r>
       <r>    -9.1100     3.5095     6.3505 </r>
       <r>    -9.1000     3.3972     6.3845 </r>
       <r>    -9.0900     3.2783     6.4172 </r>
       <r>    -9.0800     3.1538     6.4488 </r>
       <r>    -9.0700     3.0247     6.4790 </r>
       <r>    -9.0600     2.8917     6.5079 </r>
       <r>    -9.0500     2.7561     6.5355 </r>
       <r>    -9.0400     2.6186     6.5617 </r>
       <r>    -9.0300     2.4804     6.5865 </r>
       <r>    -9.0200     2.3423     6.6099 </r>
       <r>    -9.0100     2.2054     6.6320 </r>
       <r>    -9.0000     2.0706     6.6527 </r>
       <r>    -8.9900     1.9387     6.6721 </r>
       <r>    -8.9800     1.8106     6.6902 </r>
       <r>    -8.9700     1.6870     6.7070 </r>
       <r>    -8.9600     1.5686     6.7227 </r>
       <r>    -8.9500     1.4559     6.7373 </r>
       <r>    -8.9400     1.3496     6.7508 </r>
       <r>    -8.9300     1.2499     6.7633 </r>
       <r>    -8.9200     1.1573     6.7748 </r>
       <r>    -8.9100     1.0720     6.7856 </r>
       <r>    -8.9000     0.9941     6.7955 </r>
       <r>    -8.8900     0.9237     6.8047 </r>
       <r>    -8.8800     0.8606     6.8134 </r>
       <r>    -8.8700     0.8049     6.8214 </r>
       <r>    -8.8600     0.7563     6.8290 </r>
       <r>    -8.8500     0.7146     6.8361 </r>
       <r>    -8.8400     0.6793     6.8429 </r>
       <r>    -8.8300     0.6501     6.8494 </r>
       <r>    -8.8200     0.6266     6.8557 </r>
       <r>    -8.8100     0.6083     6.8618 </r>
       <r>    -8.8000     0.5946     6.8677 </r>
       <r>    -8.7900     0.5852     6.8736 </r>
       <r>    -8.7800     0.5794     6.8793 </r>
       <r>    -8.7700     0.5767     6.8851 </r>
       <r>    -8.7600     0.5766     6.8909 </r>
       <r>    -8.7500     0.5788     6.8967 </r>
       <r>    -8.7400     0.5826     6.9025 </r>
       <r>    -8.7300     0.5878     6.9084 </r>
       <r>    -8.7200     0.5940     6.9143 </r>
       <r>    -8.7100     0.6009     6.9203 </r>
       <r>    -8.7000     0.6083     6.9264 </r>
       <r>    -8.6900     0.6161     6.9326 </r>
       <r>    -8.6800     0.6242     6.9388 </r>
       <r>    -8.6700     0.6326     6.9451 </r>
       <r>    -8.6600     0.6414     6.9515 </r>
       <r>    -8.6500     0.6507     6.9581 </r>
       <r>    -8.6400     0.6608     6.9647 </r>
       <r>    -8.6300     0.6718     6.9714 </r>
       <r>    -8.6200     0.6843     6.9782 </r>
       <r>    -8.6100     0.6984     6.9852 </r>
       <r>    -8.6000     0.7148     6.9924 </r>
       <r>    -8.5900     0.7337     6.9997 </r>
       <r>    -8.5800     0.7558     7.0072 </r>
       <r>    -8.5700     0.7814     7.0151 </r>
       <r>    -8.5600     0.8110     7.0232 </r>
       <r>    -8.5500     0.8451     7.0316 </r>
       <r>    -8.5400     0.8841     7.0405 </r>
       <r>    -8.5300     0.9284     7.0497 </r>
       <r>    -8.5200     0.9784     7.0595 </r>
       <r>    -8.5100     1.0342     7.0699 </r>
       <r>    -8.5000     1.0961     7.0808 </r>
       <r>    -8.4900     1.1642     7.0925 </r>
       <r>    -8.4800     1.2387     7.1049 </r>
       <r>    -8.4700     1.3194     7.1181 </r>
       <r>    -8.4600     1.4063     7.1321 </r>
       <r>    -8.4500     1.4992     7.1471 </r>
       <r>    -8.4400     1.5977     7.1631 </r>
       <r>    -8.4300     1.7016     7.1801 </r>
       <r>    -8.4200     1.8105     7.1982 </r>
       <r>    -8.4100     1.9237     7.2174 </r>
       <r>    -8.4000     2.0409     7.2379 </r>
       <r>    -8.3900     2.1612     7.2595 </r>
       <r>    -8.3800     2.2842     7.2823 </r>
       <r>    -8.3700     2.4090     7.3064 </r>
       <r>    -8.3600     2.5350     7.3318 </r>
       <r>    -8.3500     2.6613     7.3584 </r>
       <r>    -8.3400     2.7872     7.3862 </r>
       <r>    -8.3300     2.9118     7.4154 </r>
       <r>    -8.3200     3.0344     7.4457 </r>
       <r>    -8.3100     3.1542     7.4772 </r>
       <r>    -8.3000     3.2704     7.5099 </r>
       <r>    -8.2900     3.3823     7.5438 </r>
       <r>    -8.2800     3.4891     7.5787 </r>
       <r>    -8.2700     3.5901     7.6146 </r>
       <r>    -8.2600     3.6847     7.6514 </r>
       <r>    -8.2500     3.7723     7.6891 </r>
       <r>    -8.2400     3.8523     7.7277 </r>
       <r>    -8.2300     3.9243     7.7669 </r>
       <r>    -8.2200     3.9879     7.8068 </r>
       <r>    -8.2100     4.0426     7.8472 </r>
       <r>    -8.2000     4.0883     7.8881 </r>
       <r>    -8.1900     4.1247     7.9293 </r>
       <r>    -8.1800     4.1518     7.9708 </r>
       <r>    -8.1700     4.1695     8.0125 </r>
       <r>    -8.1600     4.1779     8.0543 </r>
       <r>    -8.1500     4.1771     8.0961 </r>
       <r>    -8.1400     4.1673     8.1378 </r>
       <r>    -8.1300     4.1490     8.1793 </r>
       <r>    -8.1200     4.1224     8.2205 </r>
       <r>    -8.1100     4.0880     8.2614 </r>
       <r>    -8.1000     4.0464     8.3018 </r>
       <r>    -8.0900     3.9980     8.3418 </r>
       <r>    -8.0800     3.9436     8.3812 </r>
       <r>    -8.0700     3.8837     8.4201 </r>
       <r>    -8.0600     3.8190     8.4583 </r>
       <r>    -8.0500     3.7501     8.4958 </r>
       <r>    -8.0400     3.6778     8.5325 </r>
       <r>    -8.0300     3.6025     8.5686 </r>
       <r>    -8.0200     3.5250     8.6038 </r>
       <r>    -8.0100     3.4458     8.6383 </r>
       <r>    -8.0000     3.3654     8.6719 </r>
       <r>    -7.9900     3.2842     8.7048 </r>
       <r>    -7.9800     3.2027     8.7368 </r>
       <r>    -7.9700     3.1213     8.7680 </r>
       <r>    -7.9600     3.0401     8.7984 </r>
       <r>    -7.9500     2.9594     8.8280 </r>
       <r>    -7.9400     2.8795     8.8568 </r>
       <r>    -7.9300     2.8004     8.8848 </r>
       <r>    -7.9200     2.7223     8.9120 </r>
       <r>    -7.9100     2.6452     8.9385 </r>
       <r>    -7.9000     2.5692     8.9642 </r>
       <r>    -7.8900     2.4944     8.9891 </r>
       <r>    -7.8800     2.4209     9.0133 </r>
       <r>    -7.8700     2.3488     9.0368 </r>
       <r>    -7.8600     2.2783     9.0596 </r>
       <r>    -7.8500     2.2095     9.0817 </r>
       <r>    -7.8400     2.1428     9.1031 </r>
       <r>    -7.8300     2.0785     9.1239 </r>
       <r>    -7.8200     2.0170     9.1441 </r>
       <r>    -7.8100     1.9588     9.1637 </r>
       <r>    -7.8000     1.9044     9.1827 </r>
       <r>    -7.7900     1.8544     9.2013 </r>
       <r>    -7.7800     1.8096     9.2193 </r>
       <r>    -7.7700     1.7706     9.2371 </r>
       <r>    -7.7600     1.7382     9.2544 </r>
       <r>    -7.7500     1.7133     9.2716 </r>
       <r>    -7.7400     1.6965     9.2885 </r>
       <r>    -7.7300     1.6887     9.3054 </r>
       <r>    -7.7200     1.6906     9.3223 </r>
       <r>    -7.7100     1.7028     9.3394 </r>
       <r>    -7.7000     1.7261     9.3566 </r>
       <r>    -7.6900     1.7610     9.3742 </r>
       <r>    -7.6800     1.8077     9.3923 </r>
       <r>    -7.6700     1.8666     9.4110 </r>
       <r>    -7.6600     1.9378     9.4303 </r>
       <r>    -7.6500     2.0213     9.4506 </r>
       <r>    -7.6400     2.1167     9.4717 </r>
       <r>    -7.6300     2.2237     9.4940 </r>
       <r>    -7.6200     2.3417     9.5174 </r>
       <r>    -7.6100     2.4698     9.5421 </r>
       <r>    -7.6000     2.6071     9.5682 </r>
       <r>    -7.5900     2.7525     9.5957 </r>
       <r>    -7.5800     2.9045     9.6247 </r>
       <r>    -7.5700     3.0618     9.6553 </r>
       <r>    -7.5600     3.2228     9.6876 </r>
       <r>    -7.5500     3.3857     9.7214 </r>
       <r>    -7.5400     3.5488     9.7569 </r>
       <r>    -7.5300     3.7104     9.7940 </r>
       <r>    -7.5200     3.8685     9.8327 </r>
       <r>    -7.5100     4.0214     9.8729 </r>
       <r>    -7.5000     4.1674     9.9146 </r>
       <r>    -7.4900     4.3047     9.9576 </r>
       <r>    -7.4800     4.4319    10.0020 </r>
       <r>    -7.4700     4.5476    10.0474 </r>
       <r>    -7.4600     4.6504    10.0939 </r>
       <r>    -7.4500     4.7393    10.1413 </r>
       <r>    -7.4400     4.8135    10.1895 </r>
       <r>    -7.4300     4.8722    10.2382 </r>
       <r>    -7.4200     4.9150    10.2873 </r>
       <r>    -7.4100     4.9417    10.3368 </r>
       <r>    -7.4000     4.9522    10.3863 </r>
       <r>    -7.3900     4.9466    10.4357 </r>
       <r>    -7.3800     4.9254    10.4850 </r>
       <r>    -7.3700     4.8891    10.5339 </r>
       <r>    -7.3600     4.8383    10.5823 </r>
       <r>    -7.3500     4.7738    10.6300 </r>
       <r>    -7.3400     4.6966    10.6770 </r>
       <r>    -7.3300     4.6078    10.7230 </r>
       <r>    -7.3200     4.5084    10.7681 </r>
       <r>    -7.3100     4.3995    10.8121 </r>
       <r>    -7.3000     4.2824    10.8550 </r>
       <r>    -7.2900     4.1583    10.8965 </r>
       <r>    -7.2800     4.0283    10.9368 </r>
       <r>    -7.2700     3.8937    10.9758 </r>
       <r>    -7.2600     3.7555    11.0133 </r>
       <r>    -7.2500     3.6150    11.0495 </r>
       <r>    -7.2400     3.4731    11.0842 </r>
       <r>    -7.2300     3.3309    11.1175 </r>
       <r>    -7.2200     3.1894    11.1494 </r>
       <r>    -7.2100     3.0494    11.1799 </r>
       <r>    -7.2000     2.9119    11.2090 </r>
       <r>    -7.1900     2.7777    11.2368 </r>
       <r>    -7.1800     2.6474    11.2633 </r>
       <r>    -7.1700     2.5218    11.2885 </r>
       <r>    -7.1600     2.4015    11.3125 </r>
       <r>    -7.1500     2.2870    11.3354 </r>
       <r>    -7.1400     2.1790    11.3571 </r>
       <r>    -7.1300     2.0778    11.3779 </r>
       <r>    -7.1200     1.9839    11.3978 </r>
       <r>    -7.1100     1.8975    11.4167 </r>
       <r>    -7.1000     1.8190    11.4349 </r>
       <r>    -7.0900     1.7485    11.4524 </r>
       <r>    -7.0800     1.6861    11.4693 </r>
       <r>    -7.0700     1.6320    11.4856 </r>
       <r>    -7.0600     1.5860    11.5015 </r>
       <r>    -7.0500     1.5481    11.5169 </r>
       <r>    -7.0400     1.5180    11.5321 </r>
       <r>    -7.0300     1.4956    11.5471 </r>
       <r>    -7.0200     1.4805    11.5619 </r>
       <r>    -7.0100     1.4723    11.5766 </r>
       <r>    -7.0000     1.4705    11.5913 </r>
       <r>    -6.9900     1.4747    11.6061 </r>
       <r>    -6.9800     1.4842    11.6209 </r>
       <r>    -6.9700     1.4985    11.6359 </r>
       <r>    -6.9600     1.5168    11.6510 </r>
       <r>    -6.9500     1.5385    11.6664 </r>
       <r>    -6.9400     1.5630    11.6821 </r>
       <r>    -6.9300     1.5895    11.6980 </r>
       <r>    -6.9200     1.6173    11.7141 </r>
       <r>    -6.9100     1.6457    11.7306 </r>
       <r>    -6.9000     1.6741    11.7473 </r>
       <r>    -6.8900     1.7018    11.7643 </r>
       <r>    -6.8800     1.7283    11.7816 </r>
       <r>    -6.8700     1.7530    11.7992 </r>
       <r>    -6.8600     1.7754    11.8169 </r>
       <r>    -6.8500     1.7950    11.8349 </r>
       <r>    -6.8400     1.8114    11.8530 </r>
       <r>    -6.8300     1.8243    11.8712 </r>
       <r>    -6.8200     1.8335    11.8896 </r>
       <r>    -6.8100     1.8386    11.9079 </r>
       <r>    -6.8000     1.8395    11.9263 </r>
       <r>    -6.7900     1.8362    11.9447 </r>
       <r>    -6.7800     1.8285    11.9630 </r>
       <r>    -6.7700     1.8166    11.9811 </r>
       <r>    -6.7600     1.8004    11.9992 </r>
       <r>    -6.7500     1.7800    12.0170 </r>
       <r>    -6.7400     1.7557    12.0345 </r>
       <r>    -6.7300     1.7277    12.0518 </r>
       <r>    -6.7200     1.6963    12.0688 </r>
       <r>    -6.7100     1.6617    12.0854 </r>
       <r>    -6.7000     1.6243    12.1016 </r>
       <r>    -6.6900     1.5845    12.1175 </r>
       <r>    -6.6800     1.5427    12.1329 </r>
       <r>    -6.6700     1.4996    12.1479 </r>
       <r>    -6.6600     1.4554    12.1624 </r>
       <r>    -6.6500     1.4109    12.1765 </r>
       <r>    -6.6400     1.3666    12.1902 </r>
       <r>    -6.6300     1.3231    12.2034 </r>
       <r>    -6.6200     1.2810    12.2162 </r>
       <r>    -6.6100     1.2410    12.2287 </r>
       <r>    -6.6000     1.2038    12.2407 </r>
       <r>    -6.5900     1.1700    12.2524 </r>
       <r>    -6.5800     1.1404    12.2638 </r>
       <r>    -6.5700     1.1156    12.2750 </r>
       <r>    -6.5600     1.0963    12.2859 </r>
       <r>    -6.5500     1.0831    12.2967 </r>
       <r>    -6.5400     1.0768    12.3075 </r>
       <r>    -6.5300     1.0778    12.3183 </r>
       <r>    -6.5200     1.0868    12.3292 </r>
       <r>    -6.5100     1.1042    12.3402 </r>
       <r>    -6.5000     1.1306    12.3515 </r>
       <r>    -6.4900     1.1662    12.3632 </r>
       <r>    -6.4800     1.2114    12.3753 </r>
       <r>    -6.4700     1.2664    12.3879 </r>
       <r>    -6.4600     1.3314    12.4013 </r>
       <r>    -6.4500     1.4063    12.4153 </r>
       <r>    -6.4400     1.4911    12.4302 </r>
       <r>    -6.4300     1.5857    12.4461 </r>
       <r>    -6.4200     1.6898    12.4630 </r>
       <r>    -6.4100     1.8029    12.4810 </r>
       <r>    -6.4000     1.9247    12.5003 </r>
       <r>    -6.3900     2.0545    12.5208 </r>
       <r>    -6.3800     2.1917    12.5427 </r>
       <r>    -6.3700     2.3355    12.5661 </r>
       <r>    -6.3600     2.4851    12.5909 </r>
       <r>    -6.3500     2.6394    12.6173 </r>
       <r>    -6.3400     2.7976    12.6453 </r>
       <r>    -6.3300     2.9586    12.6749 </r>
       <r>    -6.3200     3.1212    12.7061 </r>
       <r>    -6.3100     3.2843    12.7389 </r>
       <r>    -6.3000     3.4468    12.7734 </r>
       <r>    -6.2900     3.6076    12.8095 </r>
       <r>    -6.2800     3.7653    12.8471 </r>
       <r>    -6.2700     3.9189    12.8863 </r>
       <r>    -6.2600     4.0673    12.9270 </r>
       <r>    -6.2500     4.2094    12.9691 </r>
       <r>    -6.2400     4.3440    13.0125 </r>
       <r>    -6.2300     4.4704    13.0572 </r>
       <r>    -6.2200     4.5874    13.1031 </r>
       <r>    -6.2100     4.6944    13.1501 </r>
       <r>    -6.2000     4.7905    13.1980 </r>
       <r>    -6.1900     4.8751    13.2467 </r>
       <r>    -6.1800     4.9475    13.2962 </r>
       <r>    -6.1700     5.0074    13.3463 </r>
       <r>    -6.1600     5.0543    13.3968 </r>
       <r>    -6.1500     5.0879    13.4477 </r>
       <r>    -6.1400     5.1080    13.4988 </r>
       <r>    -6.1300     5.1146    13.5499 </r>
       <r>    -6.1200     5.1077    13.6010 </r>
       <r>    -6.1100     5.0873    13.6519 </r>
       <r>    -6.1000     5.0538    13.7024 </r>
       <r>    -6.0900     5.0073    13.7525 </r>
       <r>    -6.0800     4.9484    13.8020 </r>
       <r>    -6.0700     4.8776    13.8507 </r>
       <r>    -6.0600     4.7953    13.8987 </r>
       <r>    -6.0500     4.7023    13.9457 </r>
       <r>    -6.0400     4.5993    13.9917 </r>
       <r>    -6.0300     4.4872    14.0366 </r>
       <r>    -6.0200     4.3669    14.0802 </r>
       <r>    -6.0100     4.2392    14.1226 </r>
       <r>    -6.0000     4.1052    14.1637 </r>
       <r>    -5.9900     3.9660    14.2034 </r>
       <r>    -5.9800     3.8226    14.2416 </r>
       <r>    -5.9700     3.6761    14.2783 </r>
       <r>    -5.9600     3.5276    14.3136 </r>
       <r>    -5.9500     3.3783    14.3474 </r>
       <r>    -5.9400     3.2293    14.3797 </r>
       <r>    -5.9300     3.0817    14.4105 </r>
       <r>    -5.9200     2.9365    14.4399 </r>
       <r>    -5.9100     2.7949    14.4678 </r>
       <r>    -5.9000     2.6578    14.4944 </r>
       <r>    -5.8900     2.5261    14.5197 </r>
       <r>    -5.8800     2.4009    14.5437 </r>
       <r>    -5.8700     2.2827    14.5665 </r>
       <r>    -5.8600     2.1725    14.5882 </r>
       <r>    -5.8500     2.0708    14.6089 </r>
       <r>    -5.8400     1.9781    14.6287 </r>
       <r>    -5.8300     1.8951    14.6477 </r>
       <r>    -5.8200     1.8219    14.6659 </r>
       <r>    -5.8100     1.7588    14.6835 </r>
       <r>    -5.8000     1.7061    14.7005 </r>
       <r>    -5.7900     1.6636    14.7172 </r>
       <r>    -5.7800     1.6314    14.7335 </r>
       <r>    -5.7700     1.6092    14.7496 </r>
       <r>    -5.7600     1.5968    14.7655 </r>
       <r>    -5.7500     1.5937    14.7815 </r>
       <r>    -5.7400     1.5994    14.7975 </r>
       <r>    -5.7300     1.6133    14.8136 </r>
       <r>    -5.7200     1.6348    14.8300 </r>
       <r>    -5.7100     1.6631    14.8466 </r>
       <r>    -5.7000     1.6974    14.8636 </r>
       <r>    -5.6900     1.7368    14.8809 </r>
       <r>    -5.6800     1.7803    14.8987 </r>
       <r>    -5.6700     1.8271    14.9170 </r>
       <r>    -5.6600     1.8761    14.9358 </r>
       <r>    -5.6500     1.9265    14.9550 </r>
       <r>    -5.6400     1.9773    14.9748 </r>
       <r>    -5.6300     2.0275    14.9951 </r>
       <r>    -5.6200     2.0765    15.0158 </r>
       <r>    -5.6100     2.1234    15.0371 </r>
       <r>    -5.6000     2.1675    15.0587 </r>
       <r>    -5.5900     2.2083    15.0808 </r>
       <r>    -5.5800     2.2452    15.1033 </r>
       <r>    -5.5700     2.2779    15.1261 </r>
       <r>    -5.5600     2.3062    15.1491 </r>
       <r>    -5.5500     2.3298    15.1724 </r>
       <r>    -5.5400     2.3488    15.1959 </r>
       <r>    -5.5300     2.3634    15.2195 </r>
       <r>    -5.5200     2.3736    15.2433 </r>
       <r>    -5.5100     2.3799    15.2671 </r>
       <r>    -5.5000     2.3825    15.2909 </r>
       <r>    -5.4900     2.3821    15.3147 </r>
       <r>    -5.4800     2.3791    15.3385 </r>
       <r>    -5.4700     2.3742    15.3623 </r>
       <r>    -5.4600     2.3680    15.3859 </r>
       <r>    -5.4500     2.3610    15.4095 </r>
       <r>    -5.4400     2.3541    15.4331 </r>
       <r>    -5.4300     2.3477    15.4566 </r>
       <r>    -5.4200     2.3425    15.4800 </r>
       <r>    -5.4100     2.3391    15.5034 </r>
       <r>    -5.4000     2.3378    15.5268 </r>
       <r>    -5.3900     2.3392    15.5501 </r>
       <r>    -5.3800     2.3435    15.5736 </r>
       <r>    -5.3700     2.3510    15.5971 </r>
       <r>    -5.3600     2.3619    15.6207 </r>
       <r>    -5.3500     2.3761    15.6445 </r>
       <r>    -5.3400     2.3938    15.6684 </r>
       <r>    -5.3300     2.4147    15.6926 </r>
       <r>    -5.3200     2.4387    15.7169 </r>
       <r>    -5.3100     2.4655    15.7416 </r>
       <r>    -5.3000     2.4947    15.7665 </r>
       <r>    -5.2900     2.5260    15.7918 </r>
       <r>    -5.2800     2.5588    15.8174 </r>
       <r>    -5.2700     2.5927    15.8433 </r>
       <r>    -5.2600     2.6271    15.8696 </r>
       <r>    -5.2500     2.6615    15.8962 </r>
       <r>    -5.2400     2.6954    15.9232 </r>
       <r>    -5.2300     2.7282    15.9504 </r>
       <r>    -5.2200     2.7594    15.9780 </r>
       <r>    -5.2100     2.7886    16.0059 </r>
       <r>    -5.2000     2.8153    16.0341 </r>
       <r>    -5.1900     2.8391    16.0625 </r>
       <r>    -5.1800     2.8597    16.0911 </r>
       <r>    -5.1700     2.8769    16.1198 </r>
       <r>    -5.1600     2.8905    16.1487 </r>
       <r>    -5.1500     2.9003    16.1777 </r>
       <r>    -5.1400     2.9065    16.2068 </r>
       <r>    -5.1300     2.9090    16.2359 </r>
       <r>    -5.1200     2.9079    16.2650 </r>
       <r>    -5.1100     2.9036    16.2940 </r>
       <r>    -5.1000     2.8962    16.3230 </r>
       <r>    -5.0900     2.8862    16.3518 </r>
       <r>    -5.0800     2.8738    16.3806 </r>
       <r>    -5.0700     2.8597    16.4092 </r>
       <r>    -5.0600     2.8441    16.4376 </r>
       <r>    -5.0500     2.8277    16.4659 </r>
       <r>    -5.0400     2.8109    16.4940 </r>
       <r>    -5.0300     2.7943    16.5219 </r>
       <r>    -5.0200     2.7782    16.5497 </r>
       <r>    -5.0100     2.7632    16.5774 </r>
       <r>    -5.0000     2.7495    16.6049 </r>
       <r>    -4.9900     2.7376    16.6322 </r>
       <r>    -4.9800     2.7277    16.6595 </r>
       <r>    -4.9700     2.7199    16.6867 </r>
       <r>    -4.9600     2.7143    16.7138 </r>
       <r>    -4.9500     2.7109    16.7410 </r>
       <r>    -4.9400     2.7096    16.7681 </r>
       <r>    -4.9300     2.7100    16.7952 </r>
       <r>    -4.9200     2.7120    16.8223 </r>
       <r>    -4.9100     2.7150    16.8494 </r>
       <r>    -4.9000     2.7186    16.8766 </r>
       <r>    -4.8900     2.7222    16.9038 </r>
       <r>    -4.8800     2.7253    16.9311 </r>
       <r>    -4.8700     2.7270    16.9584 </r>
       <r>    -4.8600     2.7269    16.9856 </r>
       <r>    -4.8500     2.7242    17.0129 </r>
       <r>    -4.8400     2.7182    17.0400 </r>
       <r>    -4.8300     2.7083    17.0671 </r>
       <r>    -4.8200     2.6941    17.0941 </r>
       <r>    -4.8100     2.6751    17.1208 </r>
       <r>    -4.8000     2.6509    17.1473 </r>
       <r>    -4.7900     2.6212    17.1735 </r>
       <r>    -4.7800     2.5859    17.1994 </r>
       <r>    -4.7700     2.5451    17.2249 </r>
       <r>    -4.7600     2.4988    17.2498 </r>
       <r>    -4.7500     2.4474    17.2743 </r>
       <r>    -4.7400     2.3912    17.2982 </r>
       <r>    -4.7300     2.3308    17.3215 </r>
       <r>    -4.7200     2.2667    17.3442 </r>
       <r>    -4.7100     2.1997    17.3662 </r>
       <r>    -4.7000     2.1305    17.3875 </r>
       <r>    -4.6900     2.0600    17.4081 </r>
       <r>    -4.6800     1.9890    17.4280 </r>
       <r>    -4.6700     1.9183    17.4472 </r>
       <r>    -4.6600     1.8489    17.4657 </r>
       <r>    -4.6500     1.7816    17.4835 </r>
       <r>    -4.6400     1.7169    17.5007 </r>
       <r>    -4.6300     1.6558    17.5172 </r>
       <r>    -4.6200     1.5986    17.5332 </r>
       <r>    -4.6100     1.5459    17.5487 </r>
       <r>    -4.6000     1.4981    17.5636 </r>
       <r>    -4.5900     1.4552    17.5782 </r>
       <r>    -4.5800     1.4174    17.5924 </r>
       <r>    -4.5700     1.3847    17.6062 </r>
       <r>    -4.5600     1.3570    17.6198 </r>
       <r>    -4.5500     1.3338    17.6331 </r>
       <r>    -4.5400     1.3149    17.6463 </r>
       <r>    -4.5300     1.2997    17.6593 </r>
       <r>    -4.5200     1.2877    17.6721 </r>
       <r>    -4.5100     1.2783    17.6849 </r>
       <r>    -4.5000     1.2708    17.6976 </r>
       <r>    -4.4900     1.2646    17.7103 </r>
       <r>    -4.4800     1.2589    17.7229 </r>
       <r>    -4.4700     1.2532    17.7354 </r>
       <r>    -4.4600     1.2467    17.7479 </r>
       <r>    -4.4500     1.2389    17.7603 </r>
       <r>    -4.4400     1.2293    17.7725 </r>
       <r>    -4.4300     1.2174    17.7847 </r>
       <r>    -4.4200     1.2029    17.7967 </r>
       <r>    -4.4100     1.1853    17.8086 </r>
       <r>    -4.4000     1.1646    17.8202 </r>
       <r>    -4.3900     1.1407    17.8317 </r>
       <r>    -4.3800     1.1135    17.8428 </r>
       <r>    -4.3700     1.0830    17.8536 </r>
       <r>    -4.3600     1.0495    17.8641 </r>
       <r>    -4.3500     1.0131    17.8742 </r>
       <r>    -4.3400     0.9740    17.8840 </r>
       <r>    -4.3300     0.9327    17.8933 </r>
       <r>    -4.3200     0.8895    17.9022 </r>
       <r>    -4.3100     0.8448    17.9107 </r>
       <r>    -4.3000     0.7989    17.9186 </r>
       <r>    -4.2900     0.7523    17.9262 </r>
       <r>    -4.2800     0.7054    17.9332 </r>
       <r>    -4.2700     0.6586    17.9398 </r>
       <r>    -4.2600     0.6123    17.9459 </r>
       <r>    -4.2500     0.5668    17.9516 </r>
       <r>    -4.2400     0.5224    17.9568 </r>
       <r>    -4.2300     0.4794    17.9616 </r>
       <r>    -4.2200     0.4381    17.9660 </r>
       <r>    -4.2100     0.3986    17.9700 </r>
       <r>    -4.2000     0.3612    17.9736 </r>
       <r>    -4.1900     0.3259    17.9769 </r>
       <r>    -4.1800     0.2928    17.9798 </r>
       <r>    -4.1700     0.2620    17.9824 </r>
       <r>    -4.1600     0.2334    17.9847 </r>
       <r>    -4.1500     0.2071    17.9868 </r>
       <r>    -4.1400     0.1830    17.9886 </r>
       <r>    -4.1300     0.1611    17.9903 </r>
       <r>    -4.1200     0.1412    17.9917 </r>
       <r>    -4.1100     0.1233    17.9929 </r>
       <r>    -4.1000     0.1072    17.9940 </r>
       <r>    -4.0900     0.0928    17.9949 </r>
       <r>    -4.0800     0.0801    17.9957 </r>
       <r>    -4.0700     0.0688    17.9964 </r>
       <r>    -4.0600     0.0589    17.9970 </r>
       <r>    -4.0500     0.0502    17.9975 </r>
       <r>    -4.0400     0.0426    17.9979 </r>
       <r>    -4.0300     0.0360    17.9983 </r>
       <r>    -4.0200     0.0304    17.9986 </r>
       <r>    -4.0100     0.0255    17.9988 </r>
       <r>    -4.0000     0.0213    17.9990 </r>
       <r>    -3.9900     0.0178    17.9992 </r>
       <r>    -3.9800     0.0147    17.9994 </r>
       <r>    -3.9700     0.0122    17.9995 </r>
       <r>    -3.9600     0.0100    17.9996 </r>
       <r>    -3.9500     0.0082    17.9997 </r>
       <r>    -3.9400     0.0067    17.9997 </r>
       <r>    -3.9300     0.0055    17.9998 </r>
       <r>    -3.9200     0.0044    17.9998 </r>
       <r>    -3.9100     0.0036    17.9999 </r>
       <r>    -3.9000     0.0029    17.9999 </r>
       <r>    -3.8900     0.0023    17.9999 </r>
       <r>    -3.8800     0.0018    17.9999 </r>
       <r>    -3.8700     0.0015    17.9999 </r>
       <r>    -3.8600     0.0012    18.0000 </r>
       <r>    -3.8500     0.0009    18.0000 </r>
       <r>    -3.8400     0.0007    18.0000 </r>
       <r>    -3.8300     0.0006    18.0000 </r>
       <r>    -3.8200     0.0004    18.0000 </r>
       <r>    -3.8100     0.0003    18.0000 </r>
       <r>    -3.8000     0.0003    18.0000 </r>
       <r>    -3.7900     0.0002    18.0000 </r>
       <r>    -3.7800     0.0002    18.0000 </r>
       <r>    -3.7700     0.0001    18.0000 </r>
       <r>    -3.7600     0.0001    18.0000 </r>
       <r>    -3.7500     0.0001    18.0000 </r>
       <r>    -3.7400     0.0001    18.0000 </r>
       <r>    -3.7300     0.0000    18.0000 </r>
       <r>    -3.7200     0.0000    18.0000 </r>
       <r>    -3.7100     0.0000    18.0000 </r>
       <r>    -3.7000     0.0000    18.0000 </r>
       <r>    -3.6900     0.0000    18.0000 </r>
       <r>    -3.6800     0.0000    18.0000 </r>
       <r>    -3.6700     0.0000    18.0000 </r>
       <r>    -3.6600     0.0000    18.0000 </r>
       <r>    -3.6500     0.0000    18.0000 </r>
       <r>    -3.6400     0.0000    18.0000 </r>
       <r>    -3.6300     0.0000    18.0000 </r>
       <r>    -3.6200     0.0000    18.0000 </r>
       <r>    -3.6100     0.0000    18.0000 </r>
       <r>    -3.6000     0.0000    18.0000 </r>
       <r>    -3.5900     0.0000    18.0000 </r>
       <r>    -3.5800     0.0000    18.0000 </r>
       <r>    -3.5700     0.0000    18.0000 </r>
       <r>    -3.5600     0.0000    18.0000 </r>
       <r>    -3.5500     0.0000    18.0000 </r>
       <r>    -3.5400     0.0000    18.0000 </r>
       <r>    -3.5300     0.0000    18.0000 </r>
       <r>    -3.5200     0.0000    18.0000 </r>
       <r>    -3.5100     0.0000    18.0000 </r>
       <r>    -3.5000     0.0000    18.0000 </r>
       <r>    -3.4900     0.0000    18.0000 </r>
       <r>    -3.4800     0.0000    18.0000 </r>
       <r>    -3.4700     0.0000    18.0000 </r>
       <r>    -3.4600     0.0000    18.0000 </r>
       <r>    -3.4500     0.0000    18.0000 </r>
       <r>    -3.4400     0.0000    18.0000 </r>
       <r>    -3.4300     0.0000    18.0000 </r>
       <r>    -3.4200     0.0000    18.0000 </r>
       <r>    -3.4100     0.0000    18.0000 </r>
       <r>    -3.4000     0.0000    18.0000 </r>
       <r>    -3.3900     0.0000    18.0000 </r>
       <r>    -3.3800     0.0000    18.0000 </r>
       <r>    -3.3700     0.0000    18.0000 </r>
       <r>    -3.3600     0.0000    18.0000 </r>
       <r>    -3.3500     0.0000    18.0000 </r>
       <r>    -3.3400     0.0000    18.0000 </r>
       <r>    -3.3300     0.0000    18.0000 </r>
       <r>    -3.3200     0.0000    18.0000 </r>
       <r>    -3.3100     0.0000    18.0000 </r>
       <r>    -3.3000     0.0000    18.0000 </r>
       <r>    -3.2900     0.0000    18.0000 </r>
       <r>    -3.2800     0.0000    18.0000 </r>
       <r>    -3.2700     0.0000    18.0000 </r>
       <r>    -3.2600     0.0000    18.0000 </r>
       <r>    -3.2500     0.0000    18.0000 </r>
       <r>    -3.2400     0.0000    18.0000 </r>
       <r>    -3.2300     0.0000    18.0000 </r>
       <r>    -3.2200     0.0000    18.0000 </r>
       <r>    -3.2100     0.0000    18.0000 </r>
       <r>    -3.2000     0.0000    18.0000 </r>
       <r>    -3.1900     0.0000    18.0000 </r>
       <r>    -3.1800     0.0000    18.0000 </r>
       <r>    -3.1700     0.0000    18.0000 </r>
       <r>    -3.1600     0.0000    18.0000 </r>
       <r>    -3.1500     0.0000    18.0000 </r>
       <r>    -3.1400     0.0000    18.0000 </r>
       <r>    -3.1300     0.0000    18.0000 </r>
       <r>    -3.1200     0.0000    18.0000 </r>
       <r>    -3.1100     0.0000    18.0000 </r>
       <r>    -3.1000     0.0000    18.0000 </r>
       <r>    -3.0900     0.0000    18.0000 </r>
       <r>    -3.0800     0.0000    18.0000 </r>
       <r>    -3.0700     0.0001    18.0000 </r>
       <r>    -3.0600     0.0001    18.0000 </r>
       <r>    -3.0500     0.0001    18.0000 </r>
       <r>    -3.0400     0.0002    18.0000 </r>
       <r>    -3.0300     0.0002    18.0000 </r>
       <r>    -3.0200     0.0003    18.0000 </r>
       <r>    -3.0100     0.0004    18.0000 </r>
       <r>    -3.0000     0.0005    18.0000 </r>
       <r>    -2.9900     0.0006    18.0000 </r>
       <r>    -2.9800     0.0008    18.0000 </r>
       <r>    -2.9700     0.0010    18.0000 </r>
       <r>    -2.9600     0.0013    18.0001 </r>
       <r>    -2.9500     0.0017    18.0001 </r>
       <r>    -2.9400     0.0021    18.0001 </r>
       <r>    -2.9300     0.0027    18.0001 </r>
       <r>    -2.9200     0.0034    18.0002 </r>
       <r>    -2.9100     0.0042    18.0002 </r>
       <r>    -2.9000     0.0052    18.0002 </r>
       <r>    -2.8900     0.0065    18.0003 </r>
       <r>    -2.8800     0.0080    18.0004 </r>
       <r>    -2.8700     0.0098    18.0005 </r>
       <r>    -2.8600     0.0120    18.0006 </r>
       <r>    -2.8500     0.0146    18.0008 </r>
       <r>    -2.8400     0.0176    18.0009 </r>
       <r>    -2.8300     0.0212    18.0011 </r>
       <r>    -2.8200     0.0254    18.0014 </r>
       <r>    -2.8100     0.0303    18.0017 </r>
       <r>    -2.8000     0.0360    18.0021 </r>
       <r>    -2.7900     0.0425    18.0025 </r>
       <r>    -2.7800     0.0500    18.0030 </r>
       <r>    -2.7700     0.0585    18.0036 </r>
       <r>    -2.7600     0.0682    18.0043 </r>
       <r>    -2.7500     0.0792    18.0050 </r>
       <r>    -2.7400     0.0915    18.0060 </r>
       <r>    -2.7300     0.1052    18.0070 </r>
       <r>    -2.7200     0.1205    18.0082 </r>
       <r>    -2.7100     0.1374    18.0096 </r>
       <r>    -2.7000     0.1560    18.0112 </r>
       <r>    -2.6900     0.1765    18.0129 </r>
       <r>    -2.6800     0.1988    18.0149 </r>
       <r>    -2.6700     0.2232    18.0171 </r>
       <r>    -2.6600     0.2495    18.0196 </r>
       <r>    -2.6500     0.2779    18.0224 </r>
       <r>    -2.6400     0.3084    18.0255 </r>
       <r>    -2.6300     0.3411    18.0289 </r>
       <r>    -2.6200     0.3760    18.0327 </r>
       <r>    -2.6100     0.4132    18.0368 </r>
       <r>    -2.6000     0.4526    18.0413 </r>
       <r>    -2.5900     0.4943    18.0463 </r>
       <r>    -2.5800     0.5384    18.0517 </r>
       <r>    -2.5700     0.5850    18.0575 </r>
       <r>    -2.5600     0.6339    18.0638 </r>
       <r>    -2.5500     0.6854    18.0707 </r>
       <r>    -2.5400     0.7394    18.0781 </r>
       <r>    -2.5300     0.7961    18.0860 </r>
       <r>    -2.5200     0.8556    18.0946 </r>
[...]
        <r>  0.0072  0.0713  0.0134  0.0405  0.0000  0.0000  0.0000  0.0000  0.0000 </r>
        <r>  0.0072  0.0713  0.0134  0.0405  0.0000  0.0000  0.0000  0.0000  0.0000 </r>
       </set>
       <set comment="band 11">
        <r>  0.0059  0.0061  0.0000  0.0055  0.2851  0.0000  0.0990  0.0000  0.1012 </r>
        <r>  0.0007  0.0397  0.0049  0.0956  0.0000  0.0000  0.0000  0.0000  0.0000 </r>
        <r>  0.0007  0.0397  0.0049  0.0956  0.0000  0.0000  0.0000  0.0000  0.0000 </r>
       </set>
       <set comment="band 12">
        <r>  0.0000  0.0000  0.0002  0.0000  0.0000  0.2432  0.0000  0.3035  0.0000 </r>
        <r>  0.0257  0.0395  0.0135  0.0145  0.0000  0.0000  0.0000  0.0000  0.0000 </r>
        <r>  0.0257  0.0395  0.0135  0.0145  0.0000  0.0000  0.0000  0.0000  0.0000 </r>
       </set>
       <set comment="band 13">
        <r>  0.0000  0.0000  0.0027  0.0000  0.0000  0.2525  0.0000  0.1916  0.0000 </r>
        <r>  0.0025  0.0406  0.0086  0.1196  0.0000  0.0000  0.0000  0.0000  0.0000 </r>
        <r>  0.0025  0.0406  0.0086  0.1196  0.0000  0.0000  0.0000  0.0000  0.0000 </r>
       </set>
       <set comment="band 14">
        <r>  0.0082  0.0040  0.0000  0.0019  0.0015  0.0000  0.0221  0.0000  0.0036 </r>
        <r>  0.0076  0.0058  0.0056  0.0021  0.0000  0.0000  0.0000  0.0000  0.0000 </r>
        <r>  0.0073  0.0057  0.0045  0.0019  0.0000  0.0000  0.0000  0.0000  0.0000 </r>
       </set>
      </set>
      <set comment="kpoint 7">
       <set comment="band 1">
        <r>  0.0576  0.0184  0.0000  0.0166  0.0142  0.0000  0.0008  0.0000  0.0116 </r>
        <r>  0.3024  0.0013  0.0053  0.0010  0.0000  0.0000  0.0000  0.0000  0.0000 </r>
        <r>  0.3024  0.0013  0.0053  0.0010  0.0000  0.0000  0.0000  0.0000  0.0000 </r>
       </set>
       <set comment="band 2">
        <r>  0.0000  0.0000  0.0239  0.0000  0.0000  0.0400  0.0000  0.0372  0.0000 </r>
        <r>  0.3250  0.0007  0.0018  0.0006  0.0000  0.0000  0.0000  0.0000  0.0000 </r>
        <r>  0.3249  0.0007  0.0018  0.0006  0.0000  0.0000  0.0000  0.0000  0.0000 </r>
       </set>
       <set comment="band 3">
        <r>  0.0219  0.0058  0.0000  0.0251  0.1216  0.0000  0.0657  0.0000  0.1287 </r>
        <r>  0.0017  0.0523  0.0478  0.0482  0.0000  0.0000  0.0000  0.0000  0.0000 </r>
        <r>  0.0017  0.0523  0.0478  0.0482  0.0000  0.0000  0.0000  0.0000  0.0000 </r>
       </set>
       <set comment="band 4">
        <r>  0.0000  0.0000  0.0208  0.0000  0.0000  0.0062  0.0000  0.2847  0.0000 </r>
        <r>  0.0062  0.0662  0.0150  0.0979  0.0000  0.0000  0.0000  0.0000  0.0000 </r>
        <r>  0.0062  0.0662  0.0150  0.0979  0.0000  0.0000  0.0000  0.0000  0.0000 </r>
       </set>
       <set comment="band 5">
        <r>  0.1216  0.0191  0.0000  0.0235  0.0287  0.0000  0.0522  0.0000  0.0057 </r>
        <r>  0.0328  0.0238  0.1106  0.0311  0.0000  0.0000  0.0000  0.0000  0.0000 </r>
        <r>  0.0328  0.0238  0.1106  0.0311  0.0000  0.0000  0.0000  0.0000  0.0000 </r>
       </set>
       <set comment="band 6">
        <r>  0.0000  0.0000  0.0056  0.0000  0.0000  0.3934  0.0000  0.0047  0.0000 </r>
        <r>  0.0029  0.0868  0.0506  0.0342  0.0000  0.0000  0.0000  0.0000  0.0000 </r>
        <r>  0.0029  0.0868  0.0506  0.0342  0.0000  0.0000  0.0000  0.0000  0.0000 </r>
       </set>
       <set comment="band 7">
        <r>  0.0135  0.0434  0.0000  0.0225  0.0265  0.0000  0.1133  0.0000  0.1179 </r>
        <r>  0.0016  0.0793  0.0035  0.0967  0.0000  0.0000  0.0000  0.0000  0.0000 </r>
        <r>  0.0016  0.0793  0.0035  0.0967  0.0000  0.0000  0.0000  0.0000  0.0000 </r>
       </set>
       <set comment="band 8">
        <r>  0.0000  0.0000  0.0647  0.0000  0.0000  0.0064  0.0000  0.0674  0.0000 </r>
        <r>  0.0087  0.0383  0.1533  0.0651  0.0000  0.0000  0.0000  0.0000  0.0000 </r>
        <r>  0.0087  0.0383  0.1533  0.0651  0.0000  0.0000  0.0000  0.0000  0.0000 </r>
       </set>
       <set comment="band 9">
        <r>  0.0025  0.0077  0.0000  0.0016  0.2466  0.0000  0.2342  0.0000  0.1593 </r>
        <r>  0.0043  0.0375  0.0216  0.0219  0.0000  0.0000  0.0000  0.0000  0.0000 </r>
        <r>  0.0043  0.0375  0.0216  0.0219  0.0000  0.0000  0.0000  0.0000  0.0000 </r>
       </set>
       <set comment="band 10">
        <r>  0.0080  0.0088  0.0000  0.0051  0.1226  0.0000  0.0881  0.0000  0.3459 </r>
        <r>  0.0034  0.0445  0.0233  0.0137  0.0000  0.0000  0.0000  0.0000  0.0000 </r>
        <r>  0.0034  0.0445  0.0233  0.0137  0.0000  0.0000  0.0000  0.0000  0.0000 </r>
       </set>
       <set comment="band 11">
        <r>  0.0114  0.0028  0.0000  0.0006  0.3142  0.0000  0.3114  0.0000  0.0885 </r>
        <r>  0.0004  0.0205  0.0071  0.0398  0.0000  0.0000  0.0000  0.0000  0.0000 </r>
        <r>  0.0004  0.0205  0.0071  0.0398  0.0000  0.0000  0.0000  0.0000  0.0000 </r>
       </set>
       <set comment="band 12">
        <r>  0.0000  0.0000  0.0065  0.0000  0.0000  0.1057  0.0000  0.4327  0.0000 </r>
        <r>  0.0211  0.0366  0.0268  0.0058  0.0000  0.0000  0.0000  0.0000  0.0000 </r>
        <r>  0.0211  0.0366  0.0268  0.0058  0.0000  0.0000  0.0000  0.0000  0.0000 </r>
       </set>
       <set comment="band 13">
        <r>  0.0000  0.0000  0.0026  0.0000  0.0000  0.3984  0.0000  0.0885  0.0000 </r>
        <r>  0.0083  0.0430  0.0288  0.0702  0.0000  0.0000  0.0000  0.0000  0.0000 </r>
        <r>  0.0083  0.0430  0.0288  0.0702  0.0000  0.0000  0.0000  0.0000  0.0000 </r>
       </set>
       <set comment="band 14">
        <r>  0.0019  0.0108  0.0000  0.0160  0.0051  0.0000  0.0144  0.0000  0.0089 </r>
        <r>  0.0088  0.0052  0.0051  0.0012  0.0000  0.0000  0.0000  0.0000  0.0000 </r>
        <r>  0.0091  0.0054  0.0073  0.0014  0.0000  0.0000  0.0000  0.0000  0.0000 </r>
       </set>
      </set>
      <set comment="kpoint 8">
       <set comment="band 1">
        <r>  0.0208  0.0185  0.0000  0.0307  0.0314  0.0000  0.0003  0.0000  0.0158 </r>
        <r>  0.3194  0.0004  0.0059  0.0003  0.0000  0.0000  0.0000  0.0000  0.0000 </r>
        <r>  0.3195  0.0004  0.0059  0.0003  0.0000  0.0000  0.0000  0.0000  0.0000 </r>
       </set>
       <set comment="band 2">
        <r>  0.0000  0.0000  0.0071  0.0000  0.0000  0.0407  0.0000  0.0721  0.0000 </r>
        <r>  0.3311  0.0003  0.0027  0.0003  0.0000  0.0000  0.0000  0.0000  0.0000 </r>
        <r>  0.3310  0.0003  0.0027  0.0003  0.0000  0.0000  0.0000  0.0000  0.0000 </r>
       </set>
       <set comment="band 3">
        <r>  0.1026  0.0024  0.0000  0.0266  0.0645  0.0000  0.0342  0.0000  0.0434 </r>
        <r>  0.0043  0.0508  0.0087  0.1020  0.0000  0.0000  0.0000  0.0000  0.0000 </r>
        <r>  0.0043  0.0508  0.0087  0.1020  0.0000  0.0000  0.0000  0.0000  0.0000 </r>
       </set>
       <set comment="band 4">
        <r>  0.0000  0.0000  0.0350  0.0000  0.0000  0.0693  0.0000  0.1795  0.0000 </r>
        <r>  0.0071  0.0573  0.0054  0.1112  0.0000  0.0000  0.0000  0.0000  0.0000 </r>
        <r>  0.0071  0.0573  0.0054  0.1112  0.0000  0.0000  0.0000  0.0000  0.0000 </r>
       </set>
       <set comment="band 5">
        <r>  0.0162  0.0240  0.0000  0.0179  0.1402  0.0000  0.0903  0.0000  0.0527 </r>
        <r>  0.0206  0.0058  0.1295  0.0199  0.0000  0.0000  0.0000  0.0000  0.0000 </r>
        <r>  0.0206  0.0058  0.1295  0.0199  0.0000  0.0000  0.0000  0.0000  0.0000 </r>
       </set>
       <set comment="band 6">
        <r>  0.0000  0.0000  0.0256  0.0000  0.0000  0.3184  0.0000  0.0260  0.0000 </r>
        <r>  0.0020  0.1085  0.0279  0.0475  0.0000  0.0000  0.0000  0.0000  0.0000 </r>
        <r>  0.0020  0.1085  0.0279  0.0475  0.0000  0.0000  0.0000  0.0000  0.0000 </r>
       </set>
       <set comment="band 7">
        <r>  0.0233  0.0416  0.0000  0.0489  0.0014  0.0000  0.0710  0.0000  0.0230 </r>
        <r>  0.0063  0.1216  0.0320  0.0561  0.0000  0.0000  0.0000  0.0000  0.0000 </r>
        <r>  0.0063  0.1215  0.0320  0.0561  0.0000  0.0000  0.0000  0.0000  0.0000 </r>
       </set>
       <set comment="band 8">
        <r>  0.0000  0.0000  0.0363  0.0000  0.0000  0.0160  0.0000  0.1501  0.0000 </r>
        <r>  0.0118  0.0171  0.1757  0.0390  0.0000  0.0000  0.0000  0.0000  0.0000 </r>
        <r>  0.0118  0.0172  0.1757  0.0390  0.0000  0.0000  0.0000  0.0000  0.0000 </r>
       </set>
       <set comment="band 9">
        <r>  0.0034  0.0196  0.0000  0.0198  0.1840  0.0000  0.1602  0.0000  0.1971 </r>
        <r>  0.0008  0.0479  0.0257  0.0262  0.0000  0.0000  0.0000  0.0000  0.0000 </r>
        <r>  0.0008  0.0479  0.0257  0.0262  0.0000  0.0000  0.0000  0.0000  0.0000 </r>
       </set>
       <set comment="band 10">
        <r>  0.0051  0.0091  0.0000  0.0018  0.0649  0.0000  0.3341  0.0000  0.3775 </r>
        <r>  0.0002  0.0266  0.0149  0.0068  0.0000  0.0000  0.0000  0.0000  0.0000 </r>
        <r>  0.0002  0.0266  0.0149  0.0068  0.0000  0.0000  0.0000  0.0000  0.0000 </r>
       </set>
       <set comment="band 11">
        <r>  0.0154  0.0057  0.0000  0.0107  0.3789  0.0000  0.2184  0.0000  0.1807 </r>
        <r>  0.0021  0.0014  0.0171  0.0181  0.0000  0.0000  0.0000  0.0000  0.0000 </r>
        <r>  0.0021  0.0014  0.0171  0.0181  0.0000  0.0000  0.0000  0.0000  0.0000 </r>
       </set>
       <set comment="band 12">
        <r>  0.0000  0.0000  0.0063  0.0000  0.0000  0.1640  0.0000  0.3325  0.0000 </r>
        <r>  0.0091  0.0683  0.0151  0.0162  0.0000  0.0000  0.0000  0.0000  0.0000 </r>
        <r>  0.0091  0.0683  0.0151  0.0162  0.0000  0.0000  0.0000  0.0000  0.0000 </r>
       </set>
       <set comment="band 13">
        <r>  0.0000  0.0000  0.0004  0.0000  0.0000  0.3332  0.0000  0.1444  0.0000 </r>
        <r>  0.0189  0.0144  0.0665  0.0291  0.0000  0.0000  0.0000  0.0000  0.0000 </r>
        <r>  0.0189  0.0144  0.0665  0.0291  0.0000  0.0000  0.0000  0.0000  0.0000 </r>
       </set>
       <set comment="band 14">
        <r>  0.1877  0.0089  0.0000  0.0533  0.0404  0.0000  0.0061  0.0000  0.0387 </r>
        <r>  0.0001  0.0013  0.0115  0.0051  0.0000  0.0000  0.0000  0.0000  0.0000 </r>
        <r>  0.0001  0.0013  0.0115  0.0051  0.0000  0.0000  0.0000  0.0000  0.0000 </r>
       </set>
      </set>
      <set comment="kpoint 9">
       <set comment="band 1">
        <r>  0.0218  0.0321  0.0000  0.0178  0.0177  0.0000  0.0004  0.0000  0.0266 </r>
        <r>  0.3182  0.0009  0.0058  0.0003  0.0000  0.0000  0.0000  0.0000  0.0000 </r>
        <r>  0.3183  0.0009  0.0058  0.0003  0.0000  0.0000  0.0000  0.0000  0.0000 </r>
       </set>
       <set comment="band 2">
        <r>  0.0000  0.0000  0.0084  0.0000  0.0000  0.0705  0.0000  0.0376  0.0000 </r>
        <r>  0.3320  0.0005  0.0027  0.0002  0.0000  0.0000  0.0000  0.0000  0.0000 </r>
        <r>  0.3318  0.0005  0.0027  0.0002  0.0000  0.0000  0.0000  0.0000  0.0000 </r>
       </set>
       <set comment="band 3">
        <r>  0.0650  0.0098  0.0000  0.0293  0.0359  0.0000  0.0616  0.0000  0.1071 </r>
        <r>  0.0004  0.1066  0.0171  0.0360  0.0000  0.0000  0.0000  0.0000  0.0000 </r>
        <r>  0.0004  0.1067  0.0171  0.0360  0.0000  0.0000  0.0000  0.0000  0.0000 </r>
       </set>
       <set comment="band 4">
        <r>  0.0000  0.0000  0.0084  0.0000  0.0000  0.1284  0.0000  0.2208  0.0000 </r>
        <r>  0.0041  0.0958  0.0001  0.0665  0.0000  0.0000  0.0000  0.0000  0.0000 </r>
        <r>  0.0041  0.0958  0.0001  0.0665  0.0000  0.0000  0.0000  0.0000  0.0000 </r>
       </set>
       <set comment="band 5">
        <r>  0.0785  0.0205  0.0000  0.0103  0.0692  0.0000  0.0001  0.0000  0.0673 </r>
        <r>  0.0340  0.0203  0.1496  0.0151  0.0000  0.0000  0.0000  0.0000  0.0000 </r>
        <r>  0.0340  0.0203  0.1496  0.0151  0.0000  0.0000  0.0000  0.0000  0.0000 </r>
       </set>
       <set comment="band 6">
        <r>  0.0000  0.0000  0.0470  0.0000  0.0000  0.1650  0.0000  0.0582  0.0000 </r>
        <r>  0.0039  0.0671  0.0535  0.0781  0.0000  0.0000  0.0000  0.0000  0.0000 </r>
        <r>  0.0039  0.0671  0.0535  0.0781  0.0000  0.0000  0.0000  0.0000  0.0000 </r>
       </set>
       <set comment="band 7">
        <r>  0.0102  0.0636  0.0000  0.0362  0.0089  0.0000  0.1207  0.0000  0.0185 </r>
        <r>  0.0005  0.0419  0.0089  0.1233  0.0000  0.0000  0.0000  0.0000  0.0000 </r>
        <r>  0.0005  0.0419  0.0089  0.1233  0.0000  0.0000  0.0000  0.0000  0.0000 </r>
       </set>
       <set comment="band 8">
        <r>  0.0000  0.0000  0.0523  0.0000  0.0000  0.0593  0.0000  0.0754  0.0000 </r>
        <r>  0.0130  0.0383  0.1559  0.0459  0.0000  0.0000  0.0000  0.0000  0.0000 </r>
        <r>  0.0130  0.0383  0.1559  0.0459  0.0000  0.0000  0.0000  0.0000  0.0000 </r>
       </set>
       <set comment="band 9">
        <r>  0.0074  0.0001  0.0000  0.0000  0.2536  0.0000  0.1474  0.0000  0.2690 </r>
        <r>  0.0010  0.0277  0.0016  0.0449  0.0000  0.0000  0.0000  0.0000  0.0000 </r>
        <r>  0.0010  0.0277  0.0016  0.0449  0.0000  0.0000  0.0000  0.0000  0.0000 </r>
       </set>
       <set comment="band 10">
        <r>  0.0074  0.0139  0.0000  0.0052  0.0463  0.0000  0.5213  0.0000  0.1099 </r>
        <r>  0.0006  0.0275  0.0274  0.0128  0.0000  0.0000  0.0000  0.0000  0.0000 </r>
        <r>  0.0006  0.0275  0.0274  0.0128  0.0000  0.0000  0.0000  0.0000  0.0000 </r>
       </set>
       <set comment="band 11">
        <r>  0.0246  0.0117  0.0000  0.0045  0.4757  0.0000  0.0544  0.0000  0.2307 </r>
        <r>  0.0023  0.0029  0.0261  0.0081  0.0000  0.0000  0.0000  0.0000  0.0000 </r>
        <r>  0.0023  0.0029  0.0261  0.0081  0.0000  0.0000  0.0000  0.0000  0.0000 </r>
       </set>
       <set comment="band 12">
        <r>  0.0000  0.0000  0.0020  0.0000  0.0000  0.1394  0.0000  0.3940  0.0000 </r>
        <r>  0.0076  0.0257  0.0088  0.0394  0.0000  0.0000  0.0000  0.0000  0.0000 </r>
        <r>  0.0076  0.0257  0.0088  0.0394  0.0000  0.0000  0.0000  0.0000  0.0000 </r>
       </set>
       <set comment="band 13">
        <r>  0.0000  0.0000  0.0016  0.0000  0.0000  0.3946  0.0000  0.1490  0.0000 </r>
        <r>  0.0208  0.0094  0.0755  0.0248  0.0000  0.0000  0.0000  0.0000  0.0000 </r>
        <r>  0.0208  0.0094  0.0755  0.0248  0.0000  0.0000  0.0000  0.0000  0.0000 </r>
       </set>
       <set comment="band 14">
        <r>  0.1321  0.0179  0.0000  0.0487  0.0233  0.0000  0.0104  0.0000  0.0693 </r>
        <r>  0.0001  0.0023  0.0278  0.0034  0.0000  0.0000  0.0000  0.0000  0.0000 </r>
        <r>  0.0001  0.0023  0.0278  0.0034  0.0000  0.0000  0.0000  0.0000  0.0000 </r>
       </set>
      </set>
      <set comment="kpoint 10">
       <set comment="band 1">
        <r>  0.0037  0.0239  0.0000  0.0333  0.0320  0.0000  0.0001  0.0000  0.0232 </r>
        <r>  0.3267  0.0001  0.0062  0.0000  0.0000  0.0000  0.0000  0.0000  0.0000 </r>
        <r>  0.3269  0.0001  0.0062  0.0000  0.0000  0.0000  0.0000  0.0000  0.0000 </r>
       </set>
       <set comment="band 2">
        <r>  0.0000  0.0000  0.0012  0.0000  0.0000  0.0490  0.0000  0.0724  0.0000 </r>
        <r>  0.3362  0.0001  0.0031  0.0001  0.0000  0.0000  0.0000  0.0000  0.0000 </r>
        <r>  0.3360  0.0001  0.0031  0.0001  0.0000  0.0000  0.0000  0.0000  0.0000 </r>
       </set>
       <set comment="band 3">
        <r>  0.0000  0.0000  0.0052  0.0000  0.0000  0.1909  0.0000  0.1716  0.0000 </r>
        <r>  0.0014  0.0682  0.0002  0.0892  0.0000  0.0000  0.0000  0.0000  0.0000 </r>
        <r>  0.0014  0.0682  0.0002  0.0892  0.0000  0.0000  0.0000  0.0000  0.0000 </r>
       </set>
       <set comment="band 4">
        <r>  0.1158  0.0140  0.0000  0.0182  0.0234  0.0000  0.0697  0.0000  0.0119 </r>
        <r>  0.0010  0.0456  0.0008  0.1277  0.0000  0.0000  0.0000  0.0000  0.0000 </r>
        <r>  0.0010  0.0456  0.0008  0.1277  0.0000  0.0000  0.0000  0.0000  0.0000 </r>
       </set>
       <set comment="band 5">
        <r>  0.0099  0.0426  0.0000  0.0147  0.1350  0.0000  0.0570  0.0000  0.0583 </r>
        <r>  0.0128  0.0514  0.0918  0.0171  0.0000  0.0000  0.0000  0.0000  0.0000 </r>
        <r>  0.0128  0.0514  0.0918  0.0171  0.0000  0.0000  0.0000  0.0000  0.0000 </r>
       </set>
       <set comment="band 6">
        <r>  0.0254  0.0245  0.0000  0.0604  0.0232  0.0000  0.0166  0.0000  0.0499 </r>
        <r>  0.0173  0.0805  0.0843  0.0298  0.0000  0.0000  0.0000  0.0000  0.0000 </r>
        <r>  0.0174  0.0805  0.0843  0.0298  0.0000  0.0000  0.0000  0.0000  0.0000 </r>
       </set>
       <set comment="band 7">
        <r>  0.0000  0.0000  0.0880  0.0000  0.0000  0.0674  0.0000  0.0296  0.0000 </r>
        <r>  0.0021  0.1084  0.0206  0.0916  0.0000  0.0000  0.0000  0.0000  0.0000 </r>
        <r>  0.0021  0.1084  0.0205  0.0916  0.0000  0.0000  0.0000  0.0000  0.0000 </r>
       </set>
       <set comment="band 8">
        <r>  0.0000  0.0000  0.0202  0.0000  0.0000  0.0930  0.0000  0.1434  0.0000 </r>
        <r>  0.0174  0.0142  0.1843  0.0176  0.0000  0.0000  0.0000  0.0000  0.0000 </r>
        <r>  0.0174  0.0142  0.1843  0.0176  0.0000  0.0000  0.0000  0.0000  0.0000 </r>
       </set>
       <set comment="band 9">
        <r>  0.0039  0.0023  0.0000  0.0065  0.3006  0.0000  0.0597  0.0000  0.3201 </r>
        <r>  0.0000  0.0395  0.0037  0.0253  0.0000  0.0000  0.0000  0.0000  0.0000 </r>
        <r>  0.0000  0.0395  0.0037  0.0253  0.0000  0.0000  0.0000  0.0000  0.0000 </r>
       </set>
       <set comment="band 10">
        <r>  0.0367  0.0018  0.0000  0.0007  0.0402  0.0000  0.7004  0.0000  0.0491 </r>
        <r>  0.0000  0.0133  0.0025  0.0204  0.0000  0.0000  0.0000  0.0000  0.0000 </r>
        <r>  0.0000  0.0133  0.0025  0.0204  0.0000  0.0000  0.0000  0.0000  0.0000 </r>
       </set>
       <set comment="band 11">
        <r>  0.0000  0.0000  0.0013  0.0000  0.0000  0.3130  0.0000  0.1959  0.0000 </r>
        <r>  0.0008  0.0487  0.0001  0.0299  0.0000  0.0000  0.0000  0.0000  0.0000 </r>
        <r>  0.0008  0.0487  0.0001  0.0299  0.0000  0.0000  0.0000  0.0000  0.0000 </r>
       </set>
       <set comment="band 12">
        <r>  0.0025  0.0104  0.0000  0.0214  0.2945  0.0000  0.0103  0.0000  0.3826 </r>
        <r>  0.0037  0.0009  0.0672  0.0012  0.0000  0.0000  0.0000  0.0000  0.0000 </r>
        <r>  0.0037  0.0009  0.0672  0.0012  0.0000  0.0000  0.0000  0.0000  0.0000 </r>
       </set>
       <set comment="band 13">
        <r>  0.0000  0.0000  0.0003  0.0000  0.0000  0.2357  0.0000  0.3392  0.0000 </r>
        <r>  0.0266  0.0010  0.0995  0.0019  0.0000  0.0000  0.0000  0.0000  0.0000 </r>
        <r>  0.0266  0.0010  0.0995  0.0019  0.0000  0.0000  0.0000  0.0000  0.0000 </r>
       </set>
       <set comment="band 14">
        <r>  0.1173  0.0534  0.0000  0.0641  0.0537  0.0000  0.0084  0.0000  0.0326 </r>
        <r>  0.0003  0.0020  0.0027  0.0043  0.0000  0.0000  0.0000  0.0000  0.0000 </r>
        <r>  0.0003  0.0020  0.0027  0.0043  0.0000  0.0000  0.0000  0.0000  0.0000 </r>
       </set>
      </set>
     </set>
    </set>
   </array>
  </projected>
 </calculation>
 <structure name="finalpos" >
  <crystal>
   <varray name="basis" >
    <v>       3.19031573       0.00000000       0.00000000 </v>
    <v>      -1.59515786       2.76289447       0.00000000 </v>
    <v>       0.00000000       0.00000000      40.87900430 </v>
   </varray>
   <i name="volume">    360.32821570 </i>
   <varray name="rec_basis" >
    <v>       0.31344860       0.18096963       0.00000000 </v>
    <v>       0.00000000       0.36193927       0.00000000 </v>
    <v>       0.00000000       0.00000000       0.02446244 </v>
   </varray>
  </crystal>
  <varray name="positions" >
   <v>       0.33333300       0.66666700       0.09099417 </v>
   <v>       0.66666700       0.33333300       0.05271329 </v>
   <v>       0.66666600       0.33333300       0.12927505 </v>
  </varray>
 </structure>
</modeling>
