   6   6   0   0
  0.2185851E+02  0.3190316E-09  0.3190316E-09  0.1487900E-08  0.5000000E-15
  1.000000000000000E-004
  CAR 
 unknown system                          
      8.33335162    -12.92983515  301      3.30992375      1.00000000
    -12.930  0.0000E+00  0.0000E+00
    -12.859  0.0000E+00  0.0000E+00
    -12.788  0.0000E+00  0.0000E+00
    -12.717  0.0000E+00  0.0000E+00
    -12.646  0.0000E+00  0.0000E+00
    -12.575  0.0000E+00  0.0000E+00
    -12.505  0.0000E+00  0.0000E+00
    -12.434  0.0000E+00  0.0000E+00
    -12.363  0.0000E+00  0.0000E+00
    -12.292  0.0000E+00  0.0000E+00
    -12.221  0.0000E+00  0.0000E+00
    -12.150  0.0000E+00  0.0000E+00
    -12.079  0.0000E+00  0.0000E+00
    -12.008  0.0000E+00  0.0000E+00
    -11.938  0.0000E+00  0.0000E+00
    -11.867  0.0000E+00  0.0000E+00
    -11.796  0.0000E+00  0.0000E+00
    -11.725  0.0000E+00  0.0000E+00
    -11.654  0.0000E+00  0.0000E+00
    -11.583  0.0000E+00  0.0000E+00
    -11.512  0.0000E+00  0.0000E+00
    -11.441  0.0000E+00  0.0000E+00
    -11.371  0.0000E+00  0.0000E+00
    -11.300  0.0000E+00  0.0000E+00
    -11.229  0.0000E+00  0.0000E+00
    -11.158  0.0000E+00  0.0000E+00
    -11.087  0.0000E+00  0.0000E+00
    -11.016  0.0000E+00  0.0000E+00
    -10.945  0.0000E+00  0.0000E+00
    -10.874  0.3761E+00  0.8774E-02
    -10.804  0.9558E+00  0.5597E-01
    -10.733  0.1535E+01  0.1443E+00
    -10.662  0.9959E+00  0.2309E+00
    -10.591  0.1062E+01  0.3038E+00
    -10.520  0.1127E+01  0.3814E+00
    -10.449  0.1193E+01  0.4636E+00
    -10.378  0.1259E+01  0.5505E+00
    -10.307  0.1320E+01  0.6420E+00
    -10.236  0.1332E+01  0.7360E+00
    -10.166  0.1343E+01  0.8308E+00
    -10.095  0.1381E+01  0.9269E+00
    -10.024  0.1436E+01  0.1027E+01
     -9.953  0.1491E+01  0.1131E+01
     -9.882  0.1546E+01  0.1238E+01
     -9.811  0.1601E+01  0.1350E+01
     -9.740  0.1656E+01  0.1465E+01
     -9.669  0.3392E+01  0.1620E+01
     -9.599  0.4335E+01  0.1935E+01
     -9.528  0.4602E+01  0.2244E+01
     -9.457  0.5101E+01  0.2588E+01
     -9.386  0.5565E+01  0.2968E+01
     -9.315  0.5992E+01  0.3376E+01
     -9.244  0.6556E+01  0.3820E+01
     -9.173  0.7119E+01  0.4305E+01
     -9.102  0.8478E+01  0.5094E+01
     -9.032  0.8341E+01  0.5690E+01
     -8.961  0.8687E+01  0.6293E+01
     -8.890  0.1088E+02  0.6935E+01
     -8.819  0.6189E+01  0.7626E+01
     -8.748  0.0000E+00  0.8000E+01
     -8.677  0.0000E+00  0.8000E+01
     -8.606  0.0000E+00  0.8000E+01
     -8.535  0.0000E+00  0.8000E+01
     -8.465  0.0000E+00  0.8000E+01
     -8.394  0.0000E+00  0.8000E+01
     -8.323  0.0000E+00  0.8000E+01
     -8.252  0.0000E+00  0.8000E+01
     -8.181  0.0000E+00  0.8000E+01
     -8.110  0.0000E+00  0.8000E+01
     -8.039  0.0000E+00  0.8000E+01
     -7.968  0.0000E+00  0.8000E+01
     -7.898  0.0000E+00  0.8000E+01
     -7.827  0.0000E+00  0.8000E+01
     -7.756  0.0000E+00  0.8000E+01
     -7.685  0.0000E+00  0.8000E+01
     -7.614  0.0000E+00  0.8000E+01
     -7.543  0.0000E+00  0.8000E+01
     -7.472  0.0000E+00  0.8000E+01
     -7.401  0.0000E+00  0.8000E+01
     -7.331  0.0000E+00  0.8000E+01
     -7.260  0.0000E+00  0.8000E+01
     -7.189  0.0000E+00  0.8000E+01
     -7.118  0.0000E+00  0.8000E+01
     -7.047  0.0000E+00  0.8000E+01
     -6.976  0.0000E+00  0.8000E+01
     -6.905  0.0000E+00  0.8000E+01
     -6.834  0.0000E+00  0.8000E+01
     -6.764  0.0000E+00  0.8000E+01
     -6.693  0.0000E+00  0.8000E+01
     -6.622  0.0000E+00  0.8000E+01
     -6.551  0.0000E+00  0.8000E+01
     -6.480  0.0000E+00  0.8000E+01
     -6.409  0.0000E+00  0.8000E+01
     -6.338  0.0000E+00  0.8000E+01
     -6.267  0.0000E+00  0.8000E+01
     -6.196  0.0000E+00  0.8000E+01
     -6.126  0.0000E+00  0.8000E+01
     -6.055  0.0000E+00  0.8000E+01
     -5.984  0.0000E+00  0.8000E+01
     -5.913  0.0000E+00  0.8000E+01
     -5.842  0.0000E+00  0.8000E+01
     -5.771  0.0000E+00  0.8000E+01
     -5.700  0.0000E+00  0.8000E+01
     -5.629  0.0000E+00  0.8000E+01
     -5.559  0.0000E+00  0.8000E+01
     -5.488  0.0000E+00  0.8000E+01
     -5.417  0.0000E+00  0.8000E+01
     -5.346  0.0000E+00  0.8000E+01
     -5.275  0.0000E+00  0.8000E+01
     -5.204  0.0000E+00  0.8000E+01
     -5.133  0.0000E+00  0.8000E+01
     -5.062  0.0000E+00  0.8000E+01
     -4.992  0.0000E+00  0.8000E+01
     -4.921  0.0000E+00  0.8000E+01
     -4.850  0.0000E+00  0.8000E+01
     -4.779  0.0000E+00  0.8000E+01
     -4.708  0.0000E+00  0.8000E+01
     -4.637  0.0000E+00  0.8000E+01
     -4.566  0.0000E+00  0.8000E+01
     -4.495  0.0000E+00  0.8000E+01
     -4.425  0.0000E+00  0.8000E+01
     -4.354  0.0000E+00  0.8000E+01
     -4.283  0.0000E+00  0.8000E+01
     -4.212  0.0000E+00  0.8000E+01
     -4.141  0.0000E+00  0.8000E+01
     -4.070  0.0000E+00  0.8000E+01
     -3.999  0.0000E+00  0.8000E+01
     -3.928  0.0000E+00  0.8000E+01
     -3.858  0.0000E+00  0.8000E+01
     -3.787  0.0000E+00  0.8000E+01
     -3.716  0.0000E+00  0.8000E+01
     -3.645  0.0000E+00  0.8000E+01
     -3.574  0.0000E+00  0.8000E+01
     -3.503  0.0000E+00  0.8000E+01
     -3.432  0.0000E+00  0.8000E+01
     -3.361  0.0000E+00  0.8000E+01
     -3.291  0.0000E+00  0.8000E+01
     -3.220  0.0000E+00  0.8000E+01
     -3.149  0.0000E+00  0.8000E+01
     -3.078  0.0000E+00  0.8000E+01
     -3.007  0.0000E+00  0.8000E+01
     -2.936  0.0000E+00  0.8000E+01
     -2.865  0.0000E+00  0.8000E+01
     -2.794  0.0000E+00  0.8000E+01
     -2.724  0.0000E+00  0.8000E+01
     -2.653  0.0000E+00  0.8000E+01
     -2.582  0.2333E+00  0.8003E+01
     -2.511  0.1116E+01  0.8050E+01
     -2.440  0.2132E+01  0.8164E+01
     -2.369  0.3342E+01  0.8357E+01
     -2.298  0.5204E+01  0.8650E+01
     -2.227  0.5569E+01  0.9029E+01
     -2.156  0.6013E+01  0.9440E+01
     -2.086  0.7451E+01  0.1002E+02
     -2.015  0.6338E+01  0.1050E+02
     -1.944  0.8165E+01  0.1094E+02
     -1.873  0.7700E+01  0.1167E+02
     -1.802  0.1709E+01  0.1198E+02
     -1.731  0.8796E+01  0.1260E+02
     -1.660  0.4340E+01  0.1306E+02
     -1.589  0.2666E+01  0.1327E+02
     -1.519  0.2438E+01  0.1345E+02
     -1.448  0.2211E+01  0.1362E+02
     -1.377  0.1984E+01  0.1377E+02
     -1.306  0.1757E+01  0.1390E+02
     -1.235  0.1671E+01  0.1402E+02
     -1.164  0.1678E+01  0.1414E+02
     -1.093  0.1686E+01  0.1426E+02
     -1.022  0.1693E+01  0.1438E+02
     -0.952  0.1829E+01  0.1450E+02
     -0.881  0.5559E+01  0.1474E+02
     -0.810  0.1105E+02  0.1532E+02
     -0.739  0.1044E+02  0.1621E+02
     -0.668  0.9841E+01  0.1692E+02
     -0.597  0.7965E+01  0.1757E+02
     -0.526  0.4758E+01  0.1802E+02
     -0.455  0.2616E+01  0.1826E+02
     -0.385  0.2358E+01  0.1844E+02
     -0.314  0.2190E+01  0.1860E+02
     -0.243  0.2030E+01  0.1875E+02
     -0.172  0.1870E+01  0.1889E+02
     -0.101  0.1718E+02  0.1918E+02
     -0.030  0.2060E+02  0.2060E+02
      0.041  0.7402E+01  0.2134E+02
      0.112  0.6326E+01  0.2179E+02
      0.182  0.5697E+01  0.2227E+02
      0.253  0.3771E+01  0.2258E+02
      0.324  0.3585E+01  0.2284E+02
      0.395  0.3399E+01  0.2309E+02
      0.466  0.3550E+01  0.2333E+02
      0.537  0.5237E+01  0.2364E+02
      0.608  0.5037E+01  0.2400E+02
      0.679  0.4124E+01  0.2434E+02
      0.749  0.2603E+01  0.2458E+02
      0.820  0.1790E+01  0.2471E+02
      0.891  0.1747E+01  0.2484E+02
      0.962  0.1711E+01  0.2496E+02
      1.033  0.1682E+01  0.2508E+02
      1.104  0.4905E+01  0.2526E+02
      1.175  0.1111E+02  0.2580E+02
      1.246  0.1779E+02  0.2690E+02
      1.316  0.1318E+02  0.2804E+02
      1.387  0.4801E+01  0.2865E+02
      1.458  0.3128E+01  0.2891E+02
      1.529  0.2949E+01  0.2912E+02
      1.600  0.2870E+01  0.2933E+02
      1.671  0.3035E+01  0.2953E+02
      1.742  0.3710E+01  0.2976E+02
      1.813  0.6710E+01  0.3011E+02
      1.884  0.8534E+01  0.3068E+02
      1.954  0.4888E+01  0.3115E+02
      2.025  0.4371E+01  0.3148E+02
      2.096  0.3036E+01  0.3175E+02
      2.167  0.1579E+01  0.3191E+02
      2.238  0.2693E+01  0.3203E+02
      2.309  0.7792E+01  0.3235E+02
      2.380  0.7792E+01  0.3293E+02
      2.451  0.7179E+01  0.3346E+02
      2.521  0.6632E+01  0.3395E+02
      2.592  0.6130E+01  0.3440E+02
      2.663  0.4284E+01  0.3478E+02
      2.734  0.3760E+01  0.3506E+02
      2.805  0.3236E+01  0.3531E+02
      2.876  0.2971E+01  0.3553E+02
      2.947  0.2383E+01  0.3572E+02
      3.018  0.9667E+00  0.3589E+02
      3.088  0.8013E+00  0.3595E+02
      3.159  0.2999E+00  0.3599E+02
      3.230  0.7198E-01  0.3600E+02
      3.301  0.0000E+00  0.3600E+02
      3.372  0.0000E+00  0.3600E+02
      3.443  0.0000E+00  0.3600E+02
      3.514  0.0000E+00  0.3600E+02
      3.585  0.0000E+00  0.3600E+02
      3.655  0.0000E+00  0.3600E+02
      3.726  0.0000E+00  0.3600E+02
      3.797  0.0000E+00  0.3600E+02
      3.868  0.0000E+00  0.3600E+02
      3.939  0.0000E+00  0.3600E+02
      4.010  0.0000E+00  0.3600E+02
      4.081  0.0000E+00  0.3600E+02
      4.152  0.0000E+00  0.3600E+02
      4.222  0.0000E+00  0.3600E+02
      4.293  0.0000E+00  0.3600E+02
      4.364  0.0000E+00  0.3600E+02
      4.435  0.0000E+00  0.3600E+02
      4.506  0.0000E+00  0.3600E+02
      4.577  0.0000E+00  0.3600E+02
      4.648  0.0000E+00  0.3600E+02
      4.719  0.0000E+00  0.3600E+02
      4.789  0.0000E+00  0.3600E+02
      4.860  0.0000E+00  0.3600E+02
      4.931  0.8247E+01  0.3606E+02
      5.002  0.1795E+01  0.3617E+02
      5.073  0.5300E+01  0.3641E+02
      5.144  0.8948E+01  0.3691E+02
      5.215  0.1303E+02  0.3770E+02
      5.286  0.2497E+02  0.3887E+02
      5.357  0.2171E+01  0.3946E+02
      5.427  0.1589E+01  0.3959E+02
      5.498  0.7497E+01  0.3987E+02
      5.569  0.1123E+02  0.4057E+02
      5.640  0.8143E+01  0.4118E+02
      5.711  0.8043E+01  0.4176E+02
      5.782  0.1045E+02  0.4232E+02
      5.853  0.4879E+01  0.4292E+02
      5.924  0.3503E+01  0.4320E+02
      5.994  0.2772E+01  0.4342E+02
      6.065  0.2164E+01  0.4360E+02
      6.136  0.1786E+01  0.4374E+02
      6.207  0.1618E+01  0.4387E+02
      6.278  0.1134E+01  0.4396E+02
      6.349  0.0000E+00  0.4400E+02
      6.420  0.0000E+00  0.4400E+02
      6.491  0.0000E+00  0.4400E+02
      6.561  0.0000E+00  0.4400E+02
      6.632  0.0000E+00  0.4400E+02
      6.703  0.0000E+00  0.4400E+02
      6.774  0.0000E+00  0.4400E+02
      6.845  0.0000E+00  0.4400E+02
      6.916  0.0000E+00  0.4400E+02
      6.987  0.0000E+00  0.4400E+02
      7.058  0.0000E+00  0.4400E+02
      7.128  0.0000E+00  0.4400E+02
      7.199  0.0000E+00  0.4400E+02
      7.270  0.0000E+00  0.4400E+02
      7.341  0.0000E+00  0.4400E+02
      7.412  0.0000E+00  0.4400E+02
      7.483  0.0000E+00  0.4400E+02
      7.554  0.0000E+00  0.4400E+02
      7.625  0.0000E+00  0.4400E+02
      7.695  0.0000E+00  0.4400E+02
      7.766  0.0000E+00  0.4400E+02
      7.837  0.0000E+00  0.4400E+02
      7.908  0.0000E+00  0.4400E+02
      7.979  0.0000E+00  0.4400E+02
      8.050  0.0000E+00  0.4400E+02
      8.121  0.0000E+00  0.4400E+02
      8.192  0.0000E+00  0.4400E+02
      8.262  0.0000E+00  0.4400E+02
      8.333  0.0000E+00  0.4400E+02
