       N       E                     dE             d eps       ncg     rms          rms(c)
DAV:   1     0.270035740686E+03    0.27004E+03   -0.19985E+04   880   0.199E+03
DAV:   2    -0.191030141822E+02   -0.28914E+03   -0.28117E+03  1158   0.326E+02
DAV:   3    -0.460005492852E+02   -0.26898E+02   -0.26756E+02  1194   0.900E+01
DAV:   4    -0.468011275189E+02   -0.80058E+00   -0.79929E+00  1194   0.172E+01
DAV:   5    -0.468244631236E+02   -0.23336E-01   -0.23329E-01  1276   0.277E+00    0.974E+00
RMM:   6    -0.444342319680E+02    0.23902E+01   -0.24302E+01   979   0.197E+01    0.336E+00
RMM:   7    -0.436993718247E+02    0.73486E+00   -0.19212E+00   972   0.563E+00    0.178E+00
RMM:   8    -0.436366259768E+02    0.62746E-01   -0.90563E-01  1008   0.337E+00    0.839E-01
RMM:   9    -0.436267642530E+02    0.98617E-02   -0.30464E-01  1035   0.233E+00    0.587E-01
RMM:  10    -0.436098183224E+02    0.16946E-01   -0.70777E-02  1050   0.115E+00    0.838E-02
RMM:  11    -0.436098402890E+02   -0.21967E-04   -0.32814E-03  1110   0.239E-01    0.306E-02
RMM:  12    -0.436099800351E+02   -0.13975E-03   -0.52516E-04  1126   0.117E-01    0.167E-02
RMM:  13    -0.436099897981E+02   -0.97630E-05   -0.24483E-04  1155   0.629E-02    0.163E-02
RMM:  14    -0.436099800171E+02    0.97810E-05   -0.52014E-05   846   0.346E-02
   1 F= -.44941267E+02 E0= -.44941267E+02  d E =0.000000E+00
