 vasp.5.4.4.18Apr17-6-g9f103f2a35 (build Jun 30 2017 11:15:00) complex          
  
 executed on    STALLO_VASP_5.4.4 date 2019.11.08  11:38:51
 running on    4 total cores
 distrk:  each k-point on    4 cores,    1 groups
 distr:  one band on NCORES_PER_BAND=   2 cores,    2 groups


--------------------------------------------------------------------------------------------------------


 INCAR:
 POTCAR:   PAW_PBE Mo 08Apr2002                   
 POTCAR:    PAW_PBE S 17Jan2003                   
 POTCAR:   PAW_PBE Mo 08Apr2002                   
   VRHFIN =Mo: 4p5s4d                                                           
   LEXCH  = PE                                                                  
   EATOM  =   217.5180 eV,   15.9871 Ry                                         
                                                                                
   TITEL  = PAW_PBE Mo 08Apr2002                                                
   LULTRA =        F    use ultrasoft PP ?                                      
   IUNSCR =        1    unscreen: 0-lin 1-nonlin 2-no                           
   RPACOR =    2.200    partial core radius                                     
   POMASS =   95.940; ZVAL   =    6.000    mass and valenz                      
   RCORE  =    2.750    outmost cutoff radius                                   
   RWIGS  =    2.750; RWIGS  =    1.455    wigner-seitz radius (au A)           
   ENMAX  =  224.584; ENMIN  =  168.438 eV                                      
   RCLOC  =    2.111    cutoff for local pot                                    
   LCOR   =        T    correct aug charges                                     
   LPAW   =        T    paw PP                                                  
   EAUG   =  345.278                                                            
   DEXC   =    -.088                                                            
   RMAX   =    3.077    core radius for proj-oper                               
   RAUG   =    1.300    factor for augmentation sphere                          
   RDEP   =    2.815    radius for radial grids                                 
   QCUT   =   -4.063; QGAM   =    8.126    optimization parameters              
                                                                                
   Description                                                                  
     l     E      TYP  RCUT    TYP  RCUT                                        
     2   .000     23  2.500                                                     
     2   .000     23  2.500                                                     
     0   .000     23  2.600                                                     
     0  1.000     23  2.600                                                     
     1   .400     23  2.750                                                     
     1  2.000     23  2.750                                                     
     3   .000      7   .000                                                     
  local pseudopotential read in
  partial core-charges read in
  atomic valenz-charges read in
  non local Contribution for L=           2  read in
    real space projection operators read in
  non local Contribution for L=           2  read in
    real space projection operators read in
  non local Contribution for L=           0  read in
    real space projection operators read in
  non local Contribution for L=           0  read in
    real space projection operators read in
  non local Contribution for L=           1  read in
    real space projection operators read in
  non local Contribution for L=           1  read in
    real space projection operators read in
    PAW grid and wavefunctions read in
 
   number of l-projection  operators is LMAX  =           6
   number of lm-projection operators is LMMAX =          18
 
 POTCAR:    PAW_PBE S 17Jan2003                   
   VRHFIN =S : s2p4                                                             
   LEXCH  = PE                                                                  
   EATOM  =   276.8230 eV,   20.3459 Ry                                         
                                                                                
   TITEL  = PAW_PBE S 17Jan2003                                                 
   LULTRA =        F    use ultrasoft PP ?                                      
   IUNSCR =        1    unscreen: 0-lin 1-nonlin 2-no                           
   RPACOR =    1.500    partial core radius                                     
   POMASS =   32.066; ZVAL   =    6.000    mass and valenz                      
   RCORE  =    1.900    outmost cutoff radius                                   
   RWIGS  =    2.200; RWIGS  =    1.164    wigner-seitz radius (au A)           
   ENMAX  =  280.000; ENMIN  =  194.016 eV                                      
   ICORE  =        2    local potential                                         
   LCOR   =        T    correct aug charges                                     
   LPAW   =        T    paw PP                                                  
   EAUG   =  335.092                                                            
   DEXC   =     .000                                                            
   RMAX   =    2.867    core radius for proj-oper                               
   RAUG   =    1.300    factor for augmentation sphere                          
   RDEP   =    1.954    radius for radial grids                                 
   QCUT   =   -4.360; QGAM   =    8.721    optimization parameters              
                                                                                
   Description                                                                  
     l     E      TYP  RCUT    TYP  RCUT                                        
     0   .000     23  1.900                                                     
     0   .000     23  1.900                                                     
     1   .000     23  1.900                                                     
     1   .000     23  1.900                                                     
     2   .000     23  1.900                                                     
  local pseudopotential read in
  partial core-charges read in
  atomic valenz-charges read in
  non local Contribution for L=           0  read in
    real space projection operators read in
  non local Contribution for L=           0  read in
    real space projection operators read in
  non local Contribution for L=           1  read in
    real space projection operators read in
  non local Contribution for L=           1  read in
    real space projection operators read in
    PAW grid and wavefunctions read in
 
   number of l-projection  operators is LMAX  =           4
   number of lm-projection operators is LMMAX =           8
 
 WARNING: PSMAXN for non-local potential too small
          PSMAXN should be >   14.4904333269122       NTYP=           1
 PAW_PBE Mo 08Apr2002                   :
 energy of atom  1       EATOM= -217.5180
 kinetic energy error for atom=    0.0002 (will be added to EATOM!!)
  PAW_PBE S 17Jan2003                   :
 energy of atom  2       EATOM= -276.8230
 kinetic energy error for atom=    0.0005 (will be added to EATOM!!)
 
 
 POSCAR: MoS2_mp-2815_computed                   
  positions in direct lattice
  No initial velocities read in
 exchange correlation table for  LEXCH =        8
   RHO(1)=    0.500       N(1)  =     2000
   RHO(2)=  100.500       N(2)  =     4000
 


--------------------------------------------------------------------------------------------------------


 ion  position               nearest neighbor table
   1  0.333  0.667  0.250-   5 2.42   4 2.42   4 2.42   5 2.42   5 2.42   4 2.42
   2  0.667  0.333  0.750-   6 2.42   3 2.42   3 2.42   6 2.42   6 2.42   3 2.42
   3  0.333  0.667  0.855-   2 2.42   2 2.42   2 2.42
   4  0.667  0.333  0.145-   1 2.42   1 2.42   1 2.42
   5  0.667  0.333  0.355-   1 2.42   1 2.42   1 2.42
   6  0.333  0.667  0.645-   2 2.42   2 2.42   2 2.42
 
  LATTYP: Found a hexagonal cell.
 ALAT       =     3.1903157300
 C/A-ratio  =     4.6638030713
  
  Lattice vectors:
  
 A1 = (   3.1903157300,   0.0000000000,   0.0000000000)
 A2 = (  -1.5951578650,   2.7628944683,   0.0000000000)
 A3 = (   0.0000000000,   0.0000000000,  14.8790043000)


Analysis of symmetry for initial positions (statically):
=====================================================================
 Subroutine PRICEL returns:
 Original cell was already a primitive cell.
 

 Routine SETGRP: Setting up the symmetry group for a 
 hexagonal supercell.


 Subroutine GETGRP returns: Found 24 space group operations
 (whereof 12 operations were pure point group operations)
 out of a pool of 24 trial point group operations.


The static configuration has the point symmetry D_3d.
 The point group associated with its full space group is D_6h.


Analysis of symmetry for dynamics (positions and initial velocities):
=====================================================================
 Subroutine PRICEL returns:
 Original cell was already a primitive cell.
 

 Routine SETGRP: Setting up the symmetry group for a 
 hexagonal supercell.


 Subroutine GETGRP returns: Found 24 space group operations
 (whereof 12 operations were pure point group operations)
 out of a pool of 24 trial point group operations.


The dynamic configuration has the point symmetry D_3d.
 The point group associated with its full space group is D_6h.


 Subroutine INISYM returns: Found 24 space group operations
 (whereof 12 operations are pure point group operations),
 and found     1 'primitive' translations

 
 
 KPOINTS: k-density: 4.0                          

Automatic generation of k-mesh.
Space group operators:
 irot       det(A)        alpha          n_x          n_y          n_z        tau_x        tau_y        tau_z
    1     1.000000     0.000001     1.000000     0.000000     0.000000     0.000000     0.000000     0.000000
    2    -1.000000     0.000001     1.000000     0.000000     0.000000     0.000000     0.000000     0.000000
    3     1.000000   120.000000     0.000000     0.000000    -1.000000     0.000000     0.000000     0.000000
    4    -1.000000   120.000000     0.000000     0.000000    -1.000000     0.000000     0.000000     0.000000
    5     1.000000   120.000000     0.000000     0.000000     1.000000     0.000000     0.000000     0.000000
    6    -1.000000   120.000000     0.000000     0.000000     1.000000     0.000000     0.000000     0.000000
    7     1.000000   179.999999     1.000000    -0.000000     0.000000     0.000000     0.000000     0.000000
    8    -1.000000   179.999999     1.000000    -0.000000     0.000000     0.000000     0.000000     0.000000
    9     1.000000   180.000000     0.500000    -0.866025     0.000000     0.000000     0.000000     0.000000
   10    -1.000000   180.000000     0.500000    -0.866025     0.000000     0.000000     0.000000     0.000000
   11     1.000000   180.000000    -0.500000    -0.866025     0.000000     0.000000     0.000000     0.000000
   12    -1.000000   180.000000    -0.500000    -0.866025     0.000000     0.000000     0.000000     0.000000
   13     1.000000    60.000000     0.000000     0.000000    -1.000000     0.000001     0.000000     0.500000
   14    -1.000000    60.000000     0.000000     0.000000    -1.000000     0.000001     0.000000     0.500000
   15     1.000000   180.000000     0.000000     0.000000     1.000000     0.000000     0.000000     0.500000
   16    -1.000000   180.000000     0.000000     0.000000     1.000000     0.000000     0.000000     0.500000
   17     1.000000    60.000000     0.000000     0.000000     1.000000     0.000000     0.000000     0.500000
   18    -1.000000    60.000000     0.000000     0.000000     1.000000     0.000000     0.000000     0.500000
   19     1.000000   179.999999     0.866025    -0.500000     0.000000     0.000000     0.000000     0.500000
   20    -1.000000   179.999999     0.866025    -0.500000     0.000000     0.000000     0.000000     0.500000
   21     1.000000   180.000000     0.000000     1.000000     0.000000     0.000001     0.000000     0.500000
   22    -1.000000   180.000000     0.000000     1.000000     0.000000     0.000001     0.000000     0.500000
   23     1.000000   179.999999     0.866025     0.500000     0.000000     0.000000     0.000000     0.500000
   24    -1.000000   179.999999     0.866025     0.500000     0.000000     0.000000     0.000000     0.500000
 
 Subroutine IBZKPT returns following result:
 ===========================================
 
 Found     20 irreducible k-points:
 
 Following reciprocal coordinates:
            Coordinates               Weight
  0.000000  0.000000  0.000000      1.000000
  0.125000 -0.000000  0.000000      6.000000
  0.250000 -0.000000  0.000000      6.000000
  0.375000 -0.000000  0.000000      6.000000
  0.500000 -0.000000  0.000000      3.000000
  0.125000  0.125000  0.000000      6.000000
  0.250000  0.125000  0.000000     12.000000
  0.375000  0.125000  0.000000     12.000000
  0.250000  0.250000  0.000000      6.000000
  0.375000  0.250000  0.000000      6.000000
  0.000000  0.000000  0.500000      1.000000
  0.125000 -0.000000  0.500000      6.000000
  0.250000 -0.000000  0.500000      6.000000
  0.375000 -0.000000  0.500000      6.000000
  0.500000 -0.000000  0.500000      3.000000
  0.125000  0.125000  0.500000      6.000000
  0.250000  0.125000  0.500000     12.000000
  0.375000  0.125000  0.500000     12.000000
  0.250000  0.250000  0.500000      6.000000
  0.375000  0.250000  0.500000      6.000000
 
 Following cartesian coordinates:
            Coordinates               Weight
  0.000000  0.000000  0.000000      1.000000
  0.039181  0.022621  0.000000      6.000000
  0.078362  0.045242  0.000000      6.000000
  0.117543  0.067864  0.000000      6.000000
  0.156724  0.090485  0.000000      3.000000
  0.039181  0.067864  0.000000      6.000000
  0.078362  0.090485  0.000000     12.000000
  0.117543  0.113106  0.000000     12.000000
  0.078362  0.135727  0.000000      6.000000
  0.117543  0.158348  0.000000      6.000000
  0.000000  0.000000  0.033604      1.000000
  0.039181  0.022621  0.033604      6.000000
  0.078362  0.045242  0.033604      6.000000
  0.117543  0.067864  0.033604      6.000000
  0.156724  0.090485  0.033604      3.000000
  0.039181  0.067864  0.033604      6.000000
  0.078362  0.090485  0.033604     12.000000
  0.117543  0.113106  0.033604     12.000000
  0.078362  0.135727  0.033604      6.000000
  0.117543  0.158348  0.033604      6.000000
 
 TETIRR: Found    136 inequivalent tetrahedra from      768


--------------------------------------------------------------------------------------------------------




 Dimension of arrays:
   k-points           NKPTS =     20   k-points in BZ     NKDIM =     20   number of bands    NBANDS=     22
   number of dos      NEDOS =    301   number of ions     NIONS =      6
   non local maximal  LDIM  =      6   non local SUM 2l+1 LMDIM =     18
   total plane-waves  NPLWV =  62208
   max r-space proj   IRMAX =      1   max aug-charges    IRDMAX=  30650
   dimension x,y,z NGX =    24 NGY =   24 NGZ =  108
   dimension x,y,z NGXF=    48 NGYF=   48 NGZF=  216
   support grid    NGXF=    48 NGYF=   48 NGZF=  216
   ions per type =               2   4
   NGX,Y,Z   is equivalent  to a cutoff of  12.51, 12.51, 12.07 a.u.
   NGXF,Y,Z  is equivalent  to a cutoff of  25.01, 25.01, 24.13 a.u.

 SYSTEM =  unknown system                          
 POSCAR =  MoS2_mp-2815_computed                   

 Startparameter for this run:
   NWRITE =      2    write-flag & timer
   PREC   = normal    normal or accurate (medium, high low for compatibility)
   ISTART =      0    job   : 0-new  1-cont  2-samecut
   ICHARG =      2    charge: 1-file 2-atom 10-const
   ISPIN  =      1    spin polarized calculation?
   LNONCOLLINEAR =      F non collinear calculations
   LSORBIT =      F    spin-orbit coupling
   INIWAV =      1    electr: 0-lowe 1-rand  2-diag
   LASPH  =      F    aspherical Exc in radial PAW
   METAGGA=      F    non-selfconsistent MetaGGA calc.

 Electronic Relaxation 1
   ENCUT  =  800.0 eV  58.80 Ry    7.67 a.u.   7.36  7.36 34.31*2*pi/ulx,y,z
   ENINI  =  800.0     initial cutoff
   ENAUG  =  345.3 eV  augmentation charge cutoff
   NELM   =     60;   NELMIN=  4; NELMDL=  0     # of ELM steps 
   EDIFF  = 0.1E-04   stopping-criterion for ELM
   LREAL  =      F    real-space projection
   NLSPLINE    = F    spline interpolate recip. space projectors
   LCOMPAT=      F    compatible to vasp.4.4
   GGA_COMPAT  = T    GGA compatible to vasp.4.4-vasp.4.6
   LMAXPAW     = -100 max onsite density
   LMAXMIX     =    2 max onsite mixed and CHGCAR
   VOSKOWN=      0    Vosko Wilk Nusair interpolation
   ROPT   =    0.00000   0.00000
 Ionic relaxation
   EDIFFG = 0.1E-03   stopping-criterion for IOM
   NSW    =      0    number of steps for IOM
   NBLOCK =      1;   KBLOCK =      1    inner block; outer block 
   IBRION =     -1    ionic relax: 0-MD 1-quasi-New 2-CG
   NFREE  =      0    steps in history (QN), initial steepest desc. (CG)
   ISIF   =      2    stress and relaxation
   IWAVPR =     10    prediction:  0-non 1-charg 2-wave 3-comb
   ISYM   =      2    0-nonsym 1-usesym 2-fastsym
   LCORR  =      T    Harris-Foulkes like correction to forces

   POTIM  = 0.5000    time-step for ionic-motion
   TEIN   =    0.0    initial temperature
   TEBEG  =    0.0;   TEEND  =   0.0 temperature during run
   SMASS  =  -3.00    Nose mass-parameter (am)
   estimated Nose-frequenzy (Omega)   =  0.10E-29 period in steps =****** mass=  -0.233E-27a.u.
   SCALEE = 1.0000    scale energy and forces
   NPACO  =    256;   APACO  = 16.0  distance and # of slots for P.C.
   PSTRESS=    0.0 pullay stress

  Mass of Ions in am
   POMASS =  95.94 32.07
  Ionic Valenz
   ZVAL   =   6.00  6.00
  Atomic Wigner-Seitz radii
   RWIGS  =  -1.00 -1.00
  virtual crystal weights 
   VCA    =   1.00  1.00
   NELECT =      36.0000    total number of electrons
   NUPDOWN=      -1.0000    fix difference up-down

 DOS related values:
   EMIN   =  10.00;   EMAX   =-10.00  energy-range for DOS
   EFERMI =   0.00
   ISMEAR =    -5;   SIGMA  =   0.20  broadening in eV -4-tet -1-fermi 0-gaus

 Electronic relaxation 2 (details)
   IALGO  =     68    algorithm
   LDIAG  =      T    sub-space diagonalisation (order eigenvalues)
   LSUBROT=      F    optimize rotation matrix (better conditioning)
   TURBO    =      0    0=normal 1=particle mesh
   IRESTART =      0    0=no restart 2=restart with 2 vectors
   NREBOOT  =      0    no. of reboots
   NMIN     =      0    reboot dimension
   EREF     =   0.00    reference energy to select bands
   IMIX   =      4    mixing-type and parameters
     AMIX     =   0.40;   BMIX     =  1.00
     AMIX_MAG =   1.60;   BMIX_MAG =  1.00
     AMIN     =   0.10
     WC   =   100.;   INIMIX=   1;  MIXPRE=   1;  MAXMIX= -45

 Intra band minimization:
   WEIMIN = 0.0000     energy-eigenvalue tresh-hold
   EBREAK =  0.11E-06  absolut break condition
   DEPER  =   0.30     relativ break condition  

   TIME   =   0.40     timestep for ELM

  volume/ion in A,a.u.               =      21.86       147.51
  Fermi-wavevector in a.u.,A,eV,Ry     =   1.063943  2.010561 15.401453  1.131975
  Thomas-Fermi vector in A             =   2.199445
 
 Write flags
   LWAVE        =      F    write WAVECAR
   LDOWNSAMPLE  =      F    k-point downsampling of WAVECAR
   LCHARG       =      T    write CHGCAR
   LVTOT        =      F    write LOCPOT, total local potential
   LVHAR        =      F    write LOCPOT, Hartree potential only
   LELF         =      F    write electronic localiz. function (ELF)
   LORBIT       =      0    0 simple, 1 ext, 2 COOP (PROOUT), +10 PAW based schemes


 Dipole corrections
   LMONO  =      F    monopole corrections only (constant potential shift)
   LDIPOL =      F    correct potential (dipole corrections)
   IDIPOL =      0    1-x, 2-y, 3-z, 4-all directions 
   EPSILON=  1.0000000 bulk dielectric constant

 Exchange correlation treatment:
   GGA     =    --    GGA type
   LEXCH   =     8    internal setting for exchange type
   VOSKOWN=      0    Vosko Wilk Nusair interpolation
   LHFCALC =     F    Hartree Fock is set to
   LHFONE  =     F    Hartree Fock one center treatment
   AEXX    =    0.0000 exact exchange contribution

 Linear response parameters
   LEPSILON=     F    determine dielectric tensor
   LRPA    =     F    only Hartree local field effects (RPA)
   LNABLA  =     F    use nabla operator in PAW spheres
   LVEL    =     F    velocity operator in full k-point grid
   LINTERFAST=   F  fast interpolation
   KINTER  =     0    interpolate to denser k-point grid
   CSHIFT  =0.1000    complex shift for real part using Kramers Kronig
   OMEGAMAX=  -1.0    maximum frequency
   DEG_THRESHOLD= 0.2000000E-02 threshold for treating states as degnerate
   RTIME   =   -0.100 relaxation time in fs
  (WPLASMAI=    0.000 imaginary part of plasma frequency in eV, 0.658/RTIME)
   DFIELD  = 0.0000000 0.0000000 0.0000000 field for delta impulse in time
 
 Orbital magnetization related:
   ORBITALMAG=     F  switch on orbital magnetization
   LCHIMAG   =     F  perturbation theory with respect to B field
   DQ        =  0.001000  dq finite difference perturbation B field
   LLRAUG    =     F  two centre corrections for induced B field



--------------------------------------------------------------------------------------------------------


 Static calculation
 charge density and potential will be updated during run
 non-spin polarized calculation
 RMM-DIIS sequential band-by-band and
  variant of blocked Davidson during initial phase
 perform sub-space diagonalisation
    before iterative eigenvector-optimisation
 modified Broyden-mixing scheme, WC =      100.0
 initial mixing is a Kerker type mixing with AMIX =  0.4000 and BMIX =      1.0000
 Hartree-type preconditioning will be used
 using additional bands            4
 reciprocal scheme for non local part
 use partial core corrections
 calculate Harris-corrections to forces 
   (improved forces if not selfconsistent)
 use gradient corrections 
 use of overlap-Matrix (Vanderbilt PP)
 Fermi weights with tetrahedron method with Bloechl corrections


--------------------------------------------------------------------------------------------------------


  energy-cutoff  :      800.00
  volume of cell :      131.15
      direct lattice vectors                 reciprocal lattice vectors
     3.190315730  0.000000000  0.000000000     0.313448600  0.180969634  0.000000000
    -1.595157865  2.762894468  0.000000000     0.000000000  0.361939267  0.000000000
     0.000000000  0.000000000 14.879004300     0.000000000  0.000000000  0.067208798

  length of vectors
     3.190315730  3.190315730 14.879004300     0.361939267  0.361939267  0.067208798


 
 k-points in units of 2pi/SCALE and weight: k-density: 4.0                          
   0.00000000  0.00000000  0.00000000       0.008
   0.03918108  0.02262120  0.00000000       0.047
   0.07836215  0.04524241  0.00000000       0.047
   0.11754323  0.06786361  0.00000000       0.047
   0.15672430  0.09048482  0.00000000       0.023
   0.03918108  0.06786361  0.00000000       0.047
   0.07836215  0.09048482  0.00000000       0.094
   0.11754323  0.11310602  0.00000000       0.094
   0.07836215  0.13572723  0.00000000       0.047
   0.11754323  0.15834843  0.00000000       0.047
   0.00000000  0.00000000  0.03360440       0.008
   0.03918108  0.02262120  0.03360440       0.047
   0.07836215  0.04524241  0.03360440       0.047
   0.11754323  0.06786361  0.03360440       0.047
   0.15672430  0.09048482  0.03360440       0.023
   0.03918108  0.06786361  0.03360440       0.047
   0.07836215  0.09048482  0.03360440       0.094
   0.11754323  0.11310602  0.03360440       0.094
   0.07836215  0.13572723  0.03360440       0.047
   0.11754323  0.15834843  0.03360440       0.047
 
 k-points in reciprocal lattice and weights: k-density: 4.0                          
   0.00000000  0.00000000  0.00000000       0.008
   0.12500000 -0.00000000  0.00000000       0.047
   0.25000000 -0.00000000  0.00000000       0.047
   0.37500000 -0.00000000  0.00000000       0.047
   0.50000000 -0.00000000  0.00000000       0.023
   0.12500000  0.12500000  0.00000000       0.047
   0.25000000  0.12500000  0.00000000       0.094
   0.37500000  0.12500000  0.00000000       0.094
   0.25000000  0.25000000  0.00000000       0.047
   0.37500000  0.25000000  0.00000000       0.047
   0.00000000  0.00000000  0.50000000       0.008
   0.12500000 -0.00000000  0.50000000       0.047
   0.25000000 -0.00000000  0.50000000       0.047
   0.37500000 -0.00000000  0.50000000       0.047
   0.50000000 -0.00000000  0.50000000       0.023
   0.12500000  0.12500000  0.50000000       0.047
   0.25000000  0.12500000  0.50000000       0.094
   0.37500000  0.12500000  0.50000000       0.094
   0.25000000  0.25000000  0.50000000       0.047
   0.37500000  0.25000000  0.50000000       0.047
 
 position of ions in fractional coordinates (direct lattice) 
   0.33333300  0.66666700  0.25000000
   0.66666700  0.33333300  0.75000000
   0.33333300  0.66666700  0.85517400
   0.66666700  0.33333300  0.14482600
   0.66666600  0.33333300  0.35517400
   0.33333400  0.66666700  0.64482600
 
 position of ions in cartesian coordinates  (Angst):
  -0.00000160  1.84193057  3.71975108
   1.59515946  0.92096390 11.15925323
  -0.00000160  1.84193057 12.72413762
   1.59515946  0.92096390  2.15486668
   1.59515627  0.92096390  5.28463547
   0.00000160  1.84193057  9.59436883
 


--------------------------------------------------------------------------------------------------------


 k-point  1 :   0.0000 0.0000 0.0000  plane waves:    6807
 k-point  2 :   0.1250-0.0000 0.0000  plane waves:    6767
 k-point  3 :   0.2500-0.0000 0.0000  plane waves:    6751
 k-point  4 :   0.3750-0.0000 0.0000  plane waves:    6722
 k-point  5 :   0.5000-0.0000 0.0000  plane waves:    6728
 k-point  6 :   0.1250 0.1250 0.0000  plane waves:    6747
 k-point  7 :   0.2500 0.1250 0.0000  plane waves:    6748
 k-point  8 :   0.3750 0.1250 0.0000  plane waves:    6739
 k-point  9 :   0.2500 0.2500 0.0000  plane waves:    6733
 k-point 10 :   0.3750 0.2500 0.0000  plane waves:    6704
 k-point 11 :   0.0000 0.0000 0.5000  plane waves:    6800
 k-point 12 :   0.1250-0.0000 0.5000  plane waves:    6762
 k-point 13 :   0.2500-0.0000 0.5000  plane waves:    6752
 k-point 14 :   0.3750-0.0000 0.5000  plane waves:    6724
 k-point 15 :   0.5000-0.0000 0.5000  plane waves:    6736
 k-point 16 :   0.1250 0.1250 0.5000  plane waves:    6754
 k-point 17 :   0.2500 0.1250 0.5000  plane waves:    6740
 k-point 18 :   0.3750 0.1250 0.5000  plane waves:    6726
 k-point 19 :   0.2500 0.2500 0.5000  plane waves:    6716
 k-point 20 :   0.3750 0.2500 0.5000  plane waves:    6706

 maximum and minimum number of plane-waves per node :      3430     3345

 maximum number of plane-waves:      6807
 maximum index in each direction: 
   IXMAX=    7   IYMAX=    7   IZMAX=   34
   IXMIN=   -7   IYMIN=   -7   IZMIN=  -34


 parallel 3D FFT for wavefunctions:
    minimum data exchange during FFTs selected (reduces bandwidth)
 parallel 3D FFT for charge:
    minimum data exchange during FFTs selected (reduces bandwidth)


 total amount of memory used by VASP MPI-rank0    75271. kBytes
=======================================================================

   base      :      30000. kBytes
   nonl-proj :      19793. kBytes
   fftplans  :       5153. kBytes
   grid      :       8262. kBytes
   one-center:         46. kBytes
   wavefun   :      12017. kBytes
 
     INWAV:  cpu time    0.0000: real time    0.0000
 Broyden mixing: mesh for mixing (old mesh)
   NGX = 15   NGY = 15   NGZ = 69
  (NGX  = 48   NGY  = 48   NGZ  =216)
  gives a total of  15525 points

 initial charge density was supplied:
 charge density of overlapping atoms calculated
 number of electron      36.0000000 magnetization 
 keeping initial charge density in first step


--------------------------------------------------------------------------------------------------------


 Maximum index for augmentation-charges         7425 (set IRDMAX)


--------------------------------------------------------------------------------------------------------


 First call to EWALD:  gamma=   0.349
 Maximum number of real-space cells 5x 5x 1
 Maximum number of reciprocal cells 2x 2x 7

    FEWALD:  cpu time    0.0020: real time    0.0015


--------------------------------------- Iteration      1(   1)  ---------------------------------------


    POTLOK:  cpu time    0.0740: real time    0.0885
    SETDIJ:  cpu time    0.0080: real time    0.0080
     EDDAV:  cpu time    1.1488: real time    1.1536
 BZINTS: Fermi energy: 17.125039; 36.000000 electrons
         Band energy: 236.778003;  BLOECHL correction: -0.287251
       DOS:  cpu time    0.0050: real time    0.0052
    --------------------------------------------
      LOOP:  cpu time    1.2358: real time    1.2554

 eigenvalue-minimisations  :   880
 total energy-change (2. order) : 0.2700357E+03  (-0.1998465E+04)
 number of electron      36.0000000 magnetization 
 augmentation part       36.0000000 magnetization 

 Free energy of the ion-electron system (eV)
  ---------------------------------------------------
  alpha Z        PSCENC =        90.42577596
  Ewald energy   TEWEN  =     -1146.88905665
  -Hartree energ DENC   =      -535.10238363
  -exchange      EXHF   =         0.00000000
  -V(xc)+E(xc)   XCENC  =       -72.59368065
  PAW double counting   =       813.77302396     -658.68146406
  entropy T*S    EENTRO =         0.00000000
  eigenvalues    EBANDS =       236.77800332
  atomic energy  EATOM  =      1542.32552242
  Solvation  Ediel_sol  =         0.00000000
  ---------------------------------------------------
  free energy    TOTEN  =       270.03574069 eV

  energy without entropy =      270.03574069  energy(sigma->0) =      270.03574069


--------------------------------------------------------------------------------------------------------




--------------------------------------- Iteration      1(   2)  ---------------------------------------


     EDDAV:  cpu time    1.4018: real time    1.4055
 BZINTS: Fermi energy:  6.137461; 36.000000 electrons
         Band energy: -52.360752;  BLOECHL correction:  0.000000
       DOS:  cpu time    0.0010: real time    0.0016
    --------------------------------------------
      LOOP:  cpu time    1.4028: real time    1.4071

 eigenvalue-minimisations  :  1158
 total energy-change (2. order) :-0.2891388E+03  (-0.2811722E+03)
 number of electron      36.0000000 magnetization 
 augmentation part       36.0000000 magnetization 

 Free energy of the ion-electron system (eV)
  ---------------------------------------------------
  alpha Z        PSCENC =        90.42577596
  Ewald energy   TEWEN  =     -1146.88905665
  -Hartree energ DENC   =      -535.10238363
  -exchange      EXHF   =         0.00000000
  -V(xc)+E(xc)   XCENC  =       -72.59368065
  PAW double counting   =       813.77302396     -658.68146406
  entropy T*S    EENTRO =         0.00000000
  eigenvalues    EBANDS =       -52.36075155
  atomic energy  EATOM  =      1542.32552242
  Solvation  Ediel_sol  =         0.00000000
  ---------------------------------------------------
  free energy    TOTEN  =       -19.10301418 eV

  energy without entropy =      -19.10301418  energy(sigma->0) =      -19.10301418


--------------------------------------------------------------------------------------------------------




--------------------------------------- Iteration      1(   3)  ---------------------------------------


     EDDAV:  cpu time    1.4378: real time    1.4402
 BZINTS: Fermi energy:  3.909635; 36.000000 electrons
         Band energy: -79.258287;  BLOECHL correction:  0.000000
       DOS:  cpu time    0.0010: real time    0.0011
    --------------------------------------------
      LOOP:  cpu time    1.4388: real time    1.4413

 eigenvalue-minimisations  :  1194
 total energy-change (2. order) :-0.2689754E+02  (-0.2675600E+02)
 number of electron      36.0000000 magnetization 
 augmentation part       36.0000000 magnetization 

 Free energy of the ion-electron system (eV)
  ---------------------------------------------------
  alpha Z        PSCENC =        90.42577596
  Ewald energy   TEWEN  =     -1146.88905665
  -Hartree energ DENC   =      -535.10238363
  -exchange      EXHF   =         0.00000000
  -V(xc)+E(xc)   XCENC  =       -72.59368065
  PAW double counting   =       813.77302396     -658.68146406
  entropy T*S    EENTRO =         0.00000000
  eigenvalues    EBANDS =       -79.25828665
  atomic energy  EATOM  =      1542.32552242
  Solvation  Ediel_sol  =         0.00000000
  ---------------------------------------------------
  free energy    TOTEN  =       -46.00054929 eV

  energy without entropy =      -46.00054929  energy(sigma->0) =      -46.00054929


--------------------------------------------------------------------------------------------------------




--------------------------------------- Iteration      1(   4)  ---------------------------------------


     EDDAV:  cpu time    1.4368: real time    1.4406
 BZINTS: Fermi energy:  3.882793; 36.000000 electrons
         Band energy: -80.058865;  BLOECHL correction:  0.000000
       DOS:  cpu time    0.0020: real time    0.0013
    --------------------------------------------
      LOOP:  cpu time    1.4388: real time    1.4419

 eigenvalue-minimisations  :  1194
 total energy-change (2. order) :-0.8005782E+00  (-0.7992887E+00)
 number of electron      36.0000000 magnetization 
 augmentation part       36.0000000 magnetization 

 Free energy of the ion-electron system (eV)
  ---------------------------------------------------
  alpha Z        PSCENC =        90.42577596
  Ewald energy   TEWEN  =     -1146.88905665
  -Hartree energ DENC   =      -535.10238363
  -exchange      EXHF   =         0.00000000
  -V(xc)+E(xc)   XCENC  =       -72.59368065
  PAW double counting   =       813.77302396     -658.68146406
  entropy T*S    EENTRO =         0.00000000
  eigenvalues    EBANDS =       -80.05886489
  atomic energy  EATOM  =      1542.32552242
  Solvation  Ediel_sol  =         0.00000000
  ---------------------------------------------------
  free energy    TOTEN  =       -46.80112752 eV

  energy without entropy =      -46.80112752  energy(sigma->0) =      -46.80112752


--------------------------------------------------------------------------------------------------------




--------------------------------------- Iteration      1(   5)  ---------------------------------------


     EDDAV:  cpu time    1.5218: real time    1.5246
 BZINTS: Fermi energy:  3.909905; 36.000000 electrons
         Band energy: -80.082200;  BLOECHL correction:  0.000000
       DOS:  cpu time    0.0010: real time    0.0013
    CHARGE:  cpu time    0.0920: real time    0.0920
    MIXING:  cpu time    0.0030: real time    0.0023
    --------------------------------------------
      LOOP:  cpu time    1.6178: real time    1.6202

 eigenvalue-minimisations  :  1276
 total energy-change (2. order) :-0.2333560E-01  (-0.2332941E-01)
 number of electron      36.0000005 magnetization 
 augmentation part       -1.8897206 magnetization 

 Broyden mixing:
  rms(total) = 0.97377E+00    rms(broyden)= 0.97377E+00
  rms(prec ) = 0.12183E+01
  weight for this iteration     100.00

 Free energy of the ion-electron system (eV)
  ---------------------------------------------------
  alpha Z        PSCENC =        90.42577596
  Ewald energy   TEWEN  =     -1146.88905665
  -Hartree energ DENC   =      -535.10238363
  -exchange      EXHF   =         0.00000000
  -V(xc)+E(xc)   XCENC  =       -72.59368065
  PAW double counting   =       813.77302396     -658.68146406
  entropy T*S    EENTRO =         0.00000000
  eigenvalues    EBANDS =       -80.08220049
  atomic energy  EATOM  =      1542.32552242
  Solvation  Ediel_sol  =         0.00000000
  ---------------------------------------------------
  free energy    TOTEN  =       -46.82446312 eV

  energy without entropy =      -46.82446312  energy(sigma->0) =      -46.82446312


--------------------------------------------------------------------------------------------------------




--------------------------------------- Iteration      1(   6)  ---------------------------------------


    POTLOK:  cpu time    0.0690: real time    0.0714
    SETDIJ:  cpu time    0.0070: real time    0.0069
    EDDIAG:  cpu time    0.2080: real time    0.2092
  RMM-DIIS:  cpu time    1.0128: real time    1.0113
    ORTHCH:  cpu time    0.0220: real time    0.0223
 BZINTS: Fermi energy:  2.880627; 36.000000 electrons
         Band energy: -79.175639;  BLOECHL correction:  0.000000
       DOS:  cpu time    0.0010: real time    0.0012
    CHARGE:  cpu time    0.0910: real time    0.0914
    MIXING:  cpu time    0.0030: real time    0.0022
    --------------------------------------------
      LOOP:  cpu time    1.4138: real time    1.4160

 eigenvalue-minimisations  :   979
 total energy-change (2. order) : 0.2390231E+01  (-0.2430198E+01)
 number of electron      36.0000005 magnetization 
 augmentation part       -0.8616048 magnetization 

 Broyden mixing:
  rms(total) = 0.33569E+00    rms(broyden)= 0.33569E+00
  rms(prec ) = 0.49110E+00
  weight for this iteration     100.00

 eigenvalues of (default mixing * dielectric matrix)
  average eigenvalue GAMMA=   0.8754
  0.8754

 Free energy of the ion-electron system (eV)
  ---------------------------------------------------
  alpha Z        PSCENC =        90.42577596
  Ewald energy   TEWEN  =     -1146.88905665
  -Hartree energ DENC   =      -533.61035104
  -exchange      EXHF   =         0.00000000
  -V(xc)+E(xc)   XCENC  =       -70.82300093
  PAW double counting   =       847.64815537     -694.33563804
  entropy T*S    EENTRO =         0.00000000
  eigenvalues    EBANDS =       -79.17563907
  atomic energy  EATOM  =      1542.32552242
  Solvation  Ediel_sol  =         0.00000000
  ---------------------------------------------------
  free energy    TOTEN  =       -44.43423197 eV

  energy without entropy =      -44.43423197  energy(sigma->0) =      -44.43423197


--------------------------------------------------------------------------------------------------------




--------------------------------------- Iteration      1(   7)  ---------------------------------------


    POTLOK:  cpu time    0.0690: real time    0.0717
    SETDIJ:  cpu time    0.0070: real time    0.0069
    EDDIAG:  cpu time    0.2090: real time    0.2085
  RMM-DIIS:  cpu time    0.9978: real time    0.9976
    ORTHCH:  cpu time    0.0220: real time    0.0222
 BZINTS: Fermi energy:  3.216859; 36.000000 electrons
         Band energy: -73.438503;  BLOECHL correction:  0.000000
       DOS:  cpu time    0.0010: real time    0.0012
    CHARGE:  cpu time    0.0910: real time    0.0909
    MIXING:  cpu time    0.0020: real time    0.0021
    --------------------------------------------
      LOOP:  cpu time    1.3988: real time    1.4012

 eigenvalue-minimisations  :   972
 total energy-change (2. order) : 0.7348601E+00  (-0.1921235E+00)
 number of electron      36.0000005 magnetization 
 augmentation part       -1.1096019 magnetization 

 Broyden mixing:
  rms(total) = 0.17817E+00    rms(broyden)= 0.17817E+00
  rms(prec ) = 0.21303E+00
  weight for this iteration     100.00

 eigenvalues of (default mixing * dielectric matrix)
  average eigenvalue GAMMA=   1.4135
  0.7614  2.0655

 Free energy of the ion-electron system (eV)
  ---------------------------------------------------
  alpha Z        PSCENC =        90.42577596
  Ewald energy   TEWEN  =     -1146.88905665
  -Hartree energ DENC   =      -537.92556950
  -exchange      EXHF   =         0.00000000
  -V(xc)+E(xc)   XCENC  =       -71.01180340
  PAW double counting   =       880.86185551     -728.04759343
  entropy T*S    EENTRO =         0.00000000
  eigenvalues    EBANDS =       -73.43850274
  atomic energy  EATOM  =      1542.32552242
  Solvation  Ediel_sol  =         0.00000000
  ---------------------------------------------------
  free energy    TOTEN  =       -43.69937182 eV

  energy without entropy =      -43.69937182  energy(sigma->0) =      -43.69937182


--------------------------------------------------------------------------------------------------------




--------------------------------------- Iteration      1(   8)  ---------------------------------------


    POTLOK:  cpu time    0.0690: real time    0.0727
    SETDIJ:  cpu time    0.0080: real time    0.0069
    EDDIAG:  cpu time    0.2070: real time    0.2081
  RMM-DIIS:  cpu time    1.0318: real time    1.0304
    ORTHCH:  cpu time    0.0210: real time    0.0222
 BZINTS: Fermi energy:  3.323776; 36.000000 electrons
         Band energy: -68.466596;  BLOECHL correction:  0.000000
       DOS:  cpu time    0.0010: real time    0.0012
    CHARGE:  cpu time    0.0910: real time    0.0909
    MIXING:  cpu time    0.0030: real time    0.0030
    --------------------------------------------
      LOOP:  cpu time    1.4318: real time    1.4352

 eigenvalue-minimisations  :  1008
 total energy-change (2. order) : 0.6274585E-01  (-0.9056306E-01)
 number of electron      36.0000005 magnetization 
 augmentation part       -1.1695102 magnetization 

 Broyden mixing:
  rms(total) = 0.83852E-01    rms(broyden)= 0.83852E-01
  rms(prec ) = 0.11222E+00
  weight for this iteration     100.00

 eigenvalues of (default mixing * dielectric matrix)
  average eigenvalue GAMMA=   1.4893
  2.1168  1.5283  0.8230

 Free energy of the ion-electron system (eV)
  ---------------------------------------------------
  alpha Z        PSCENC =        90.42577596
  Ewald energy   TEWEN  =     -1146.88905665
  -Hartree energ DENC   =      -542.22928761
  -exchange      EXHF   =         0.00000000
  -V(xc)+E(xc)   XCENC  =       -70.62867817
  PAW double counting   =       931.30025601     -779.47456191
  entropy T*S    EENTRO =         0.00000000
  eigenvalues    EBANDS =       -68.46659603
  atomic energy  EATOM  =      1542.32552242
  Solvation  Ediel_sol  =         0.00000000
  ---------------------------------------------------
  free energy    TOTEN  =       -43.63662598 eV

  energy without entropy =      -43.63662598  energy(sigma->0) =      -43.63662598


--------------------------------------------------------------------------------------------------------




--------------------------------------- Iteration      1(   9)  ---------------------------------------


    POTLOK:  cpu time    0.0690: real time    0.0723
    SETDIJ:  cpu time    0.0080: real time    0.0069
    EDDIAG:  cpu time    0.2070: real time    0.2080
  RMM-DIIS:  cpu time    1.0658: real time    1.0647
    ORTHCH:  cpu time    0.0220: real time    0.0222
 BZINTS: Fermi energy:  3.242168; 36.000000 electrons
         Band energy: -68.939209;  BLOECHL correction:  0.000000
       DOS:  cpu time    0.0000: real time    0.0013
    CHARGE:  cpu time    0.0910: real time    0.0910
    MIXING:  cpu time    0.0030: real time    0.0023
    --------------------------------------------
      LOOP:  cpu time    1.4658: real time    1.4687

 eigenvalue-minimisations  :  1035
 total energy-change (2. order) : 0.9861724E-02  (-0.3046377E-01)
 number of electron      36.0000005 magnetization 
 augmentation part       -1.0412292 magnetization 

 Broyden mixing:
  rms(total) = 0.58701E-01    rms(broyden)= 0.58701E-01
  rms(prec ) = 0.81893E-01
  weight for this iteration     100.00

 eigenvalues of (default mixing * dielectric matrix)
  average eigenvalue GAMMA=   1.5277
  2.1474  2.1474  0.9079  0.9079

 Free energy of the ion-electron system (eV)
  ---------------------------------------------------
  alpha Z        PSCENC =        90.42577596
  Ewald energy   TEWEN  =     -1146.88905665
  -Hartree energ DENC   =      -541.83803346
  -exchange      EXHF   =         0.00000000
  -V(xc)+E(xc)   XCENC  =       -70.36512941
  PAW double counting   =       937.80342209     -786.15005587
  entropy T*S    EENTRO =         0.00000000
  eigenvalues    EBANDS =       -68.93920935
  atomic energy  EATOM  =      1542.32552242
  Solvation  Ediel_sol  =         0.00000000
  ---------------------------------------------------
  free energy    TOTEN  =       -43.62676425 eV

  energy without entropy =      -43.62676425  energy(sigma->0) =      -43.62676425


--------------------------------------------------------------------------------------------------------




--------------------------------------- Iteration      1(  10)  ---------------------------------------


    POTLOK:  cpu time    0.0690: real time    0.0717
    SETDIJ:  cpu time    0.0080: real time    0.0069
    EDDIAG:  cpu time    0.2070: real time    0.2080
  RMM-DIIS:  cpu time    1.0878: real time    1.0869
    ORTHCH:  cpu time    0.0220: real time    0.0221
 BZINTS: Fermi energy:  3.310832; 36.000000 electrons
         Band energy: -68.023222;  BLOECHL correction:  0.000000
       DOS:  cpu time    0.0000: real time    0.0012
    CHARGE:  cpu time    0.0910: real time    0.0909
    MIXING:  cpu time    0.0030: real time    0.0024
    --------------------------------------------
      LOOP:  cpu time    1.4878: real time    1.4900

 eigenvalue-minimisations  :  1050
 total energy-change (2. order) : 0.1694593E-01  (-0.7077651E-02)
 number of electron      36.0000005 magnetization 
 augmentation part       -1.1048190 magnetization 

 Broyden mixing:
  rms(total) = 0.83782E-02    rms(broyden)= 0.83782E-02
  rms(prec ) = 0.10762E-01
  weight for this iteration     100.00

 eigenvalues of (default mixing * dielectric matrix)
  average eigenvalue GAMMA=   1.4330
  2.4492  1.6430  0.8875  0.8875  1.2977

 Free energy of the ion-electron system (eV)
  ---------------------------------------------------
  alpha Z        PSCENC =        90.42577596
  Ewald energy   TEWEN  =     -1146.88905665
  -Hartree energ DENC   =      -542.63985831
  -exchange      EXHF   =         0.00000000
  -V(xc)+E(xc)   XCENC  =       -70.42258334
  PAW double counting   =       943.64920157     -792.03559846
  entropy T*S    EENTRO =         0.00000000
  eigenvalues    EBANDS =       -68.02322152
  atomic energy  EATOM  =      1542.32552242
  Solvation  Ediel_sol  =         0.00000000
  ---------------------------------------------------
  free energy    TOTEN  =       -43.60981832 eV

  energy without entropy =      -43.60981832  energy(sigma->0) =      -43.60981832


--------------------------------------------------------------------------------------------------------




--------------------------------------- Iteration      1(  11)  ---------------------------------------


    POTLOK:  cpu time    0.0700: real time    0.0710
    SETDIJ:  cpu time    0.0070: real time    0.0069
    EDDIAG:  cpu time    0.2080: real time    0.2082
  RMM-DIIS:  cpu time    1.1368: real time    1.1363
    ORTHCH:  cpu time    0.0210: real time    0.0221
 BZINTS: Fermi energy:  3.306328; 36.000000 electrons
         Band energy: -67.905152;  BLOECHL correction:  0.000000
       DOS:  cpu time    0.0010: real time    0.0012
    CHARGE:  cpu time    0.0920: real time    0.0912
    MIXING:  cpu time    0.0030: real time    0.0025
    --------------------------------------------
      LOOP:  cpu time    1.5388: real time    1.5395

 eigenvalue-minimisations  :  1110
 total energy-change (2. order) :-0.2196658E-04  (-0.3281442E-03)
 number of electron      36.0000005 magnetization 
 augmentation part       -1.0980096 magnetization 

 Broyden mixing:
  rms(total) = 0.30584E-02    rms(broyden)= 0.30584E-02
  rms(prec ) = 0.37370E-02
  weight for this iteration     100.00

 eigenvalues of (default mixing * dielectric matrix)
  average eigenvalue GAMMA=   1.6626
  2.8595  2.5614  1.8087  0.8926  0.8926  0.9609

 Free energy of the ion-electron system (eV)
  ---------------------------------------------------
  alpha Z        PSCENC =        90.42577596
  Ewald energy   TEWEN  =     -1146.88905665
  -Hartree energ DENC   =      -542.77679700
  -exchange      EXHF   =         0.00000000
  -V(xc)+E(xc)   XCENC  =       -70.39485394
  PAW double counting   =       943.94193407     -792.33721322
  entropy T*S    EENTRO =         0.00000000
  eigenvalues    EBANDS =       -67.90515193
  atomic energy  EATOM  =      1542.32552242
  Solvation  Ediel_sol  =         0.00000000
  ---------------------------------------------------
  free energy    TOTEN  =       -43.60984029 eV

  energy without entropy =      -43.60984029  energy(sigma->0) =      -43.60984029


--------------------------------------------------------------------------------------------------------




--------------------------------------- Iteration      1(  12)  ---------------------------------------


    POTLOK:  cpu time    0.0680: real time    0.0720
    SETDIJ:  cpu time    0.0080: real time    0.0069
    EDDIAG:  cpu time    0.2080: real time    0.2075
  RMM-DIIS:  cpu time    1.1418: real time    1.1423
    ORTHCH:  cpu time    0.0220: real time    0.0221
 BZINTS: Fermi energy:  3.310450; 36.000000 electrons
         Band energy: -67.725338;  BLOECHL correction:  0.000000
       DOS:  cpu time    0.0010: real time    0.0012
    CHARGE:  cpu time    0.0910: real time    0.0913
    MIXING:  cpu time    0.0030: real time    0.0026
    --------------------------------------------
      LOOP:  cpu time    1.5428: real time    1.5459

 eigenvalue-minimisations  :  1126
 total energy-change (2. order) :-0.1397462E-03  (-0.5251551E-04)
 number of electron      36.0000005 magnetization 
 augmentation part       -1.0970920 magnetization 

 Broyden mixing:
  rms(total) = 0.16662E-02    rms(broyden)= 0.16662E-02
  rms(prec ) = 0.20565E-02
  weight for this iteration     100.00

 eigenvalues of (default mixing * dielectric matrix)
  average eigenvalue GAMMA=   1.5887
  2.9098  2.3661  1.5678  1.5678  0.8927  0.8927  0.9238

 Free energy of the ion-electron system (eV)
  ---------------------------------------------------
  alpha Z        PSCENC =        90.42577596
  Ewald energy   TEWEN  =     -1146.88905665
  -Hartree energ DENC   =      -542.97959744
  -exchange      EXHF   =         0.00000000
  -V(xc)+E(xc)   XCENC  =       -70.38594522
  PAW double counting   =       943.63762360     -792.01896504
  entropy T*S    EENTRO =         0.00000000
  eigenvalues    EBANDS =       -67.72533767
  atomic energy  EATOM  =      1542.32552242
  Solvation  Ediel_sol  =         0.00000000
  ---------------------------------------------------
  free energy    TOTEN  =       -43.60998004 eV

  energy without entropy =      -43.60998004  energy(sigma->0) =      -43.60998004


--------------------------------------------------------------------------------------------------------




--------------------------------------- Iteration      1(  13)  ---------------------------------------


    POTLOK:  cpu time    0.0690: real time    0.0713
    SETDIJ:  cpu time    0.0080: real time    0.0069
    EDDIAG:  cpu time    0.2070: real time    0.2076
  RMM-DIIS:  cpu time    1.1678: real time    1.1678
    ORTHCH:  cpu time    0.0220: real time    0.0221
 BZINTS: Fermi energy:  3.311805; 36.000000 electrons
         Band energy: -67.727638;  BLOECHL correction:  0.000000
       DOS:  cpu time    0.0010: real time    0.0012
    CHARGE:  cpu time    0.0910: real time    0.0912
    MIXING:  cpu time    0.0040: real time    0.0027
    --------------------------------------------
      LOOP:  cpu time    1.5698: real time    1.5708

 eigenvalue-minimisations  :  1155
 total energy-change (2. order) :-0.9762963E-05  (-0.2448281E-04)
 number of electron      36.0000005 magnetization 
 augmentation part       -1.0999141 magnetization 

 Broyden mixing:
  rms(total) = 0.16338E-02    rms(broyden)= 0.16338E-02
  rms(prec ) = 0.21918E-02
  weight for this iteration     100.00

 eigenvalues of (default mixing * dielectric matrix)
  average eigenvalue GAMMA=   1.7408
  3.2436  2.6331  2.6331  1.6043  1.1512  0.8840  0.8840  0.8934

 Free energy of the ion-electron system (eV)
  ---------------------------------------------------
  alpha Z        PSCENC =        90.42577596
  Ewald energy   TEWEN  =     -1146.88905665
  -Hartree energ DENC   =      -542.97260813
  -exchange      EXHF   =         0.00000000
  -V(xc)+E(xc)   XCENC  =       -70.38908510
  PAW double counting   =       943.78185248     -792.16475239
  entropy T*S    EENTRO =         0.00000000
  eigenvalues    EBANDS =       -67.72763840
  atomic energy  EATOM  =      1542.32552242
  Solvation  Ediel_sol  =         0.00000000
  ---------------------------------------------------
  free energy    TOTEN  =       -43.60998980 eV

  energy without entropy =      -43.60998980  energy(sigma->0) =      -43.60998980


--------------------------------------------------------------------------------------------------------




--------------------------------------- Iteration      1(  14)  ---------------------------------------


    POTLOK:  cpu time    0.0680: real time    0.0712
    SETDIJ:  cpu time    0.0080: real time    0.0069
    EDDIAG:  cpu time    0.2080: real time    0.2077
  RMM-DIIS:  cpu time    0.8809: real time    0.8816
    ORTHCH:  cpu time    0.0220: real time    0.0221
 BZINTS: Fermi energy:  3.309924; 36.000000 electrons
         Band energy: -67.744069;  BLOECHL correction:  0.000000
       DOS:  cpu time    0.0010: real time    0.0012
    --------------------------------------------
      LOOP:  cpu time    1.1878: real time    1.1906

 eigenvalue-minimisations  :   846
 total energy-change (2. order) : 0.9781021E-05  (-0.5201409E-05)
 number of electron      36.0000005 magnetization 
 augmentation part       -1.0999141 magnetization 

 Free energy of the ion-electron system (eV)
  ---------------------------------------------------
  alpha Z        PSCENC =        90.42577596
  Ewald energy   TEWEN  =     -1146.88905665
  -Hartree energ DENC   =      -542.95844084
  -exchange      EXHF   =         0.00000000
  -V(xc)+E(xc)   XCENC  =       -70.38668803
  PAW double counting   =       943.62936297     -792.01238703
  entropy T*S    EENTRO =         0.00000000
  eigenvalues    EBANDS =       -67.74406883
  atomic energy  EATOM  =      1542.32552242
  Solvation  Ediel_sol  =         0.00000000
  ---------------------------------------------------
  free energy    TOTEN  =       -43.60998002 eV

  energy without entropy =      -43.60998002  energy(sigma->0) =      -43.60998002


--------------------------------------------------------------------------------------------------------




 average (electrostatic) potential at core
  the test charge radii are     1.2296  0.9698
  (the norm of the test charge is              1.0000)
       1 -40.3301       2 -40.3301       3 -88.1720       4 -88.1721       5 -88.1721
       6 -88.1720
 
 
 
 E-fermi :   3.3099     XC(G=0):  -9.3245     alpha+bet : -9.6368


 k-point     1 :       0.0000    0.0000    0.0000
  band No.  band energies     occupation 
      1     -10.9298      2.00000
      2     -10.9108      2.00000
      3      -9.7293      2.00000
      4      -9.6954      2.00000
      5      -2.5237      2.00000
      6      -2.3622      2.00000
      7       0.5193      2.00000
      8       0.5193      2.00000
      9       0.5199      2.00000
     10       0.5199      2.00000
     11       1.1059      2.00000
     12       1.6243      2.00000
     13       1.6243      2.00000
     14       1.6262      2.00000
     15       1.6262      2.00000
     16       1.6742      2.00000
     17       2.9224      2.00000
     18       3.2983      2.00000
     19       5.8728      0.00000
     20       5.8871      0.00000
     21       5.9374      0.00000
     22       6.0319      0.00000

 k-point     2 :       0.1250   -0.0000    0.0000
  band No.  band energies     occupation 
      1     -10.7155      2.00000
      2     -10.6969      2.00000
      3      -9.6257      2.00000
      4      -9.5942      2.00000
      5      -2.2779      2.00000
      6      -2.1190      2.00000
      7       0.0548      2.00000
      8       0.0576      2.00000
      9       0.4563      2.00000
     10       0.6724      2.00000
     11       0.7534      2.00000
     12       0.7546      2.00000
     13       1.2882      2.00000
     14       1.2908      2.00000
     15       1.9303      2.00000
     16       2.2142      2.00000
     17       2.8433      2.00000
     18       3.0853      2.00000
     19       5.5161      0.00000
     20       5.6415      0.00000
     21       5.7118      0.00000
     22       5.8264      0.00000

 k-point     3 :       0.2500   -0.0000    0.0000
  band No.  band energies     occupation 
      1     -10.1458      2.00000
      2     -10.1291      2.00000
      3      -9.3533      2.00000
      4      -9.3290      2.00000
      5      -1.8880      2.00000
      6      -1.7772      2.00000
      7      -0.6918      2.00000
      8      -0.6483      2.00000
      9      -0.4615      2.00000
     10      -0.3601      2.00000
     11       0.6528      2.00000
     12       0.6562      2.00000
     13       1.3394      2.00000
     14       1.3429      2.00000
     15       1.7038      2.00000
     16       1.9126      2.00000
     17       2.3697      2.00000
     18       2.4182      2.00000
     19       5.1192      0.00000
     20       5.4378      0.00000
     21       5.4475      0.00000
     22       5.4600      0.00000

 k-point     4 :       0.3750   -0.0000    0.0000
  band No.  band energies     occupation 
      1      -9.4683      2.00000
      2      -9.4564      2.00000
      3      -9.0398      2.00000
      4      -9.0256      2.00000
      5      -2.2856      2.00000
      6      -2.2509      2.00000
      7      -1.2978      2.00000
      8      -1.2548      2.00000
      9      -0.8467      2.00000
     10      -0.7617      2.00000
     11       0.1552      2.00000
     12       0.1592      2.00000
     13       1.3418      2.00000
     14       1.4494      2.00000
     15       1.9274      2.00000
     16       1.9360      2.00000
     17       2.1733      2.00000
     18       2.2240      2.00000
     19       5.2593      0.00000
     20       5.2685      0.00000
     21       5.4547      0.00000
     22       5.6359      0.00000

 k-point     5 :       0.5000   -0.0000    0.0000
  band No.  band energies     occupation 
      1      -9.1374      2.00000
      2      -9.1308      2.00000
      3      -8.8926      2.00000
      4      -8.8861      2.00000
      5      -2.6140      2.00000
      6      -2.5870      2.00000
      7      -1.6531      2.00000
      8      -1.6286      2.00000
      9      -0.9685      2.00000
     10      -0.8926      2.00000
     11      -0.0255      2.00000
     12      -0.0213      2.00000
     13       1.2464      2.00000
     14       1.2659      2.00000
     15       2.1528      2.00000
     16       2.1649      2.00000
     17       2.4769      2.00000
     18       2.4807      2.00000
     19       5.2842      0.00000
     20       5.2880      0.00000
     21       5.7746      0.00000
     22       5.8295      0.00000

 k-point     6 :       0.1250    0.1250    0.0000
  band No.  band energies     occupation 
      1     -10.3221      2.00000
      2     -10.3047      2.00000
      3      -9.4363      2.00000
      4      -9.4096      2.00000
      5      -1.9212      2.00000
      6      -1.7814      2.00000
      7      -0.5139      2.00000
      8      -0.5013      2.00000
      9      -0.0654      2.00000
     10       0.0766      2.00000
     11       0.4636      2.00000
     12       0.4898      2.00000
     13       1.0926      2.00000
     14       1.0944      2.00000
     15       2.0955      2.00000
     16       2.2979      2.00000
     17       2.5520      2.00000
     18       2.6276      2.00000
     19       5.0631      0.00000
     20       5.3279      0.00000
     21       5.5282      0.00000
     22       5.5630      0.00000

 k-point     7 :       0.2500    0.1250    0.0000
  band No.  band energies     occupation 
      1      -9.6868      2.00000
      2      -9.6728      2.00000
      3      -9.1335      2.00000
      4      -9.1153      2.00000
      5      -1.9398      2.00000
      6      -1.8868      2.00000
      7      -0.9514      2.00000
      8      -0.9202      2.00000
      9      -0.7086      2.00000
     10      -0.6351      2.00000
     11      -0.0669      2.00000
     12       0.0078      2.00000
     13       1.1900      2.00000
     14       1.1959      2.00000
     15       1.7870      2.00000
     16       1.8734      2.00000
     17       2.3021      2.00000
     18       2.3119      2.00000
     19       4.9960      0.00000
     20       5.2122      0.00000
     21       5.5914      0.00000
     22       5.9090      0.00000

 k-point     8 :       0.3750    0.1250    0.0000
  band No.  band energies     occupation 
      1      -9.1532      2.00000
      2      -9.1455      2.00000
      3      -8.8846      2.00000
      4      -8.8762      2.00000
      5      -2.3267      2.00000
      6      -2.2998      2.00000
      7      -1.7025      2.00000
      8      -1.6933      2.00000
      9      -0.8381      2.00000
     10      -0.7675      2.00000
     11      -0.0675      2.00000
     12      -0.0251      2.00000
     13       1.1997      2.00000
     14       1.2160      2.00000
     15       1.3282      2.00000
     16       1.3665      2.00000
     17       2.6245      2.00000
     18       2.6428      2.00000
     19       5.2706      0.00000
     20       5.3348      0.00000
     21       5.7786      0.00000
     22       5.8539      0.00000

 k-point     9 :       0.2500    0.2500    0.0000
  band No.  band energies     occupation 
      1      -9.1686      2.00000
      2      -9.1600      2.00000
      3      -8.8764      2.00000
      4      -8.8665      2.00000
      5      -1.9674      2.00000
      6      -1.9389      2.00000
      7      -1.7539      2.00000
      8      -1.7428      2.00000
      9      -0.4883      2.00000
     10      -0.4638      2.00000
     11      -0.1394      2.00000
     12      -0.0512      2.00000
     13       0.2145      2.00000
     14       0.2371      2.00000
     15       1.4761      2.00000
     16       1.4868      2.00000
     17       2.6004      2.00000
     18       2.6102      2.00000
     19       5.1856      0.00000
     20       5.3138      0.00000
     21       5.9252      0.00000
     22       6.0915      0.00000

 k-point    10 :       0.3750    0.2500    0.0000
  band No.  band energies     occupation 
      1      -8.9310      2.00000
      2      -8.9279      2.00000
      3      -8.7538      2.00000
      4      -8.7507      2.00000
      5      -2.1381      2.00000
      6      -2.1274      2.00000
      7      -1.7920      2.00000
      8      -1.7758      2.00000
      9      -0.7782      2.00000
     10      -0.7410      2.00000
     11      -0.1072      2.00000
     12      -0.0863      2.00000
     13       0.1067      2.00000
     14       0.1577      2.00000
     15       1.0756      2.00000
     16       1.1155      2.00000
     17       2.9620      2.00000
     18       2.9832      2.00000
     19       4.9236      0.00000
     20       4.9325      0.00000
     21       6.1512      0.00000
     22       6.3334      0.00000

 k-point    11 :       0.0000    0.0000    0.5000
  band No.  band energies     occupation 
      1     -10.9205      2.00000
      2     -10.9205      2.00000
      3      -9.7122      2.00000
      4      -9.7122      2.00000
      5      -2.4457      2.00000
      6      -2.4457      2.00000
      7       0.5196      2.00000
      8       0.5196      2.00000
      9       0.5196      2.00000
     10       0.5196      2.00000
     11       1.3626      2.00000
     12       1.3626      2.00000
     13       1.6252      2.00000
     14       1.6253      2.00000
     15       1.6253      2.00000
     16       1.6253      2.00000
     17       3.1410      2.00000
     18       3.1410      2.00000
     19       5.8773      0.00000
     20       5.8837      0.00000
     21       6.0033      0.00000
     22       6.0907      0.00000

 k-point    12 :       0.1250   -0.0000    0.5000
  band No.  band energies     occupation 
      1     -10.7063      2.00000
      2     -10.7063      2.00000
      3      -9.6098      2.00000
      4      -9.6098      2.00000
      5      -2.2015      2.00000
      6      -2.2015      2.00000
      7       0.0559      2.00000
      8       0.0559      2.00000
      9       0.5710      2.00000
     10       0.5710      2.00000
     11       0.7540      2.00000
     12       0.7540      2.00000
     13       1.2895      2.00000
     14       1.2895      2.00000
     15       2.0425      2.00000
     16       2.0425      2.00000
     17       2.9903      2.00000
     18       2.9903      2.00000
     19       5.5911      0.00000
     20       5.6175      0.00000
     21       5.7303      0.00000
     22       5.8247      0.00000

 k-point    13 :       0.2500   -0.0000    0.5000
  band No.  band energies     occupation 
      1     -10.1376      2.00000
      2     -10.1376      2.00000
      3      -9.3410      2.00000
      4      -9.3410      2.00000
      5      -1.8344      2.00000
      6      -1.8344      2.00000
      7      -0.6757      2.00000
      8      -0.6757      2.00000
      9      -0.4029      2.00000
     10      -0.4028      2.00000
     11       0.6545      2.00000
     12       0.6545      2.00000
     13       1.3412      2.00000
     14       1.3412      2.00000
     15       1.8004      2.00000
     16       1.8004      2.00000
     17       2.3994      2.00000
     18       2.3994      2.00000
     19       5.2599      0.00000
     20       5.2607      0.00000
     21       5.4466      0.00000
     22       5.4474      0.00000

 k-point    14 :       0.3750   -0.0000    0.5000
  band No.  band energies     occupation 
      1      -9.4625      2.00000
      2      -9.4625      2.00000
      3      -9.0326      2.00000
      4      -9.0326      2.00000
      5      -2.2684      2.00000
      6      -2.2684      2.00000
      7      -1.2782      2.00000
      8      -1.2782      2.00000
      9      -0.8022      2.00000
     10      -0.8022      2.00000
     11       0.1572      2.00000
     12       0.1572      2.00000
     13       1.3935      2.00000
     14       1.3935      2.00000
     15       1.9317      2.00000
     16       1.9317      2.00000
     17       2.2006      2.00000
     18       2.2006      2.00000
     19       5.2638      0.00000
     20       5.2638      0.00000
     21       5.5374      0.00000
     22       5.5376      0.00000

 k-point    15 :       0.5000   -0.0000    0.5000
  band No.  band energies     occupation 
      1      -9.1342      2.00000
      2      -9.1342      2.00000
      3      -8.8893      2.00000
      4      -8.8893      2.00000
      5      -2.6006      2.00000
      6      -2.6006      2.00000
      7      -1.6417      2.00000
      8      -1.6417      2.00000
      9      -0.9296      2.00000
     10      -0.9296      2.00000
     11      -0.0234      2.00000
     12      -0.0234      2.00000
     13       1.2560      2.00000
     14       1.2560      2.00000
     15       2.1588      2.00000
     16       2.1588      2.00000
     17       2.4789      2.00000
     18       2.4789      2.00000
     19       5.2861      0.00000
     20       5.2861      0.00000
     21       5.8018      0.00000
     22       5.8028      0.00000

 k-point    16 :       0.1250    0.1250    0.5000
  band No.  band energies     occupation 
      1     -10.3135      2.00000
      2     -10.3135      2.00000
      3      -9.4228      2.00000
      4      -9.4228      2.00000
      5      -1.8542      2.00000
      6      -1.8542      2.00000
      7      -0.5094      2.00000
      8      -0.5094      2.00000
      9       0.0124      2.00000
     10       0.0124      2.00000
     11       0.4756      2.00000
     12       0.4756      2.00000
     13       1.0935      2.00000
     14       1.0935      2.00000
     15       2.1814      2.00000
     16       2.1814      2.00000
     17       2.6015      2.00000
     18       2.6015      2.00000
     19       5.1831      0.00000
     20       5.1856      0.00000
     21       5.5493      0.00000
     22       5.6426      0.00000

 k-point    17 :       0.2500    0.1250    0.5000
  band No.  band energies     occupation 
      1      -9.6799      2.00000
      2      -9.6799      2.00000
      3      -9.1243      2.00000
      4      -9.1242      2.00000
      5      -1.9137      2.00000
      6      -1.9137      2.00000
      7      -0.9376      2.00000
      8      -0.9376      2.00000
      9      -0.6718      2.00000
     10      -0.6718      2.00000
     11      -0.0269      2.00000
     12      -0.0269      2.00000
     13       1.1928      2.00000
     14       1.1928      2.00000
     15       1.8282      2.00000
     16       1.8282      2.00000
     17       2.3077      2.00000
     18       2.3077      2.00000
     19       5.1026      0.00000
     20       5.1028      0.00000
     21       5.5654      0.00000
     22       5.5873      0.00000

 k-point    18 :       0.3750    0.1250    0.5000
  band No.  band energies     occupation 
      1      -9.1494      2.00000
      2      -9.1494      2.00000
      3      -8.8804      2.00000
      4      -8.8804      2.00000
      5      -2.3134      2.00000
      6      -2.3133      2.00000
      7      -1.6981      2.00000
      8      -1.6981      2.00000
      9      -0.8036      2.00000
     10      -0.8035      2.00000
     11      -0.0449      2.00000
     12      -0.0449      2.00000
     13       1.2071      2.00000
     14       1.2072      2.00000
     15       1.3473      2.00000
     16       1.3473      2.00000
     17       2.6339      2.00000
     18       2.6339      2.00000
     19       5.3030      0.00000
     20       5.3030      0.00000
     21       5.8120      0.00000
     22       5.8133      0.00000

 k-point    19 :       0.2500    0.2500    0.5000
  band No.  band energies     occupation 
      1      -9.1644      2.00000
      2      -9.1644      2.00000
      3      -8.8713      2.00000
      4      -8.8713      2.00000
      5      -1.9534      2.00000
      6      -1.9534      2.00000
      7      -1.7482      2.00000
      8      -1.7482      2.00000
      9      -0.4798      2.00000
     10      -0.4798      2.00000
     11      -0.0911      2.00000
     12      -0.0911      2.00000
     13       0.2259      2.00000
     14       0.2259      2.00000
     15       1.4804      2.00000
     16       1.4804      2.00000
     17       2.6054      2.00000
     18       2.6054      2.00000
     19       5.2494      0.00000
     20       5.2497      0.00000
     21       5.9105      0.00000
     22       6.1467      0.00000

 k-point    20 :       0.3750    0.2500    0.5000
  band No.  band energies     occupation 
      1      -8.9294      2.00000
      2      -8.9294      2.00000
      3      -8.7522      2.00000
      4      -8.7522      2.00000
      5      -2.1328      2.00000
      6      -2.1328      2.00000
      7      -1.7837      2.00000
      8      -1.7837      2.00000
      9      -0.7606      2.00000
     10      -0.7606      2.00000
     11      -0.0995      2.00000
     12      -0.0995      2.00000
     13       0.1370      2.00000
     14       0.1370      2.00000
     15       1.0940      2.00000
     16       1.0940      2.00000
     17       2.9726      2.00000
     18       2.9726      2.00000
     19       4.9282      0.00000
     20       4.9282      0.00000
     21       6.2295      0.00000
     22       6.2551      0.00000


--------------------------------------------------------------------------------------------------------


 soft charge-density along one line, spin component           1
         0         1         2         3         4         5         6         7         8         9
 total charge-density along one line
 
 pseudopotential strength for first ion, spin component:           1
 -8.238  -0.000   0.000   0.000  -0.000  -0.074   0.000  -0.000
 -0.000  -8.238   0.000  -0.000  -0.000   0.000  -0.074  -0.000
  0.000   0.000  -8.217  -0.000  -0.000  -0.000  -0.000  -0.075
  0.000  -0.000  -0.000  -8.238  -0.000  -0.000   0.000   0.000
 -0.000  -0.000  -0.000  -0.000  -8.238   0.000   0.000   0.000
 -0.074   0.000  -0.000  -0.000   0.000   0.112  -0.000   0.000
  0.000  -0.074  -0.000   0.000   0.000  -0.000   0.112   0.000
 -0.000  -0.000  -0.075   0.000   0.000   0.000   0.000   0.112
 -0.000   0.000   0.000  -0.074   0.000   0.000  -0.000  -0.000
  0.000   0.000   0.000   0.000  -0.074  -0.000  -0.000  -0.000
  0.000  -0.000  -0.005   0.000  -0.000  -0.000   0.000   0.000
 -0.000   0.000   0.001  -0.000   0.000   0.000  -0.000  -0.000
 -0.000   0.000  -0.000  -0.000  -0.007   0.000  -0.000   0.000
 -0.000   0.000   0.000  -0.000  -0.000  -0.000  -0.000  -0.000
 -0.007  -0.000   0.000   0.000  -0.000  -0.000  -0.000  -0.000
  0.000  -0.000   0.000   0.000   0.004  -0.000   0.000  -0.000
  0.000  -0.000  -0.000   0.000   0.000  -0.000   0.000   0.000
  0.004   0.000  -0.000  -0.000   0.000   0.000  -0.000   0.000
 total augmentation occupancy for first ion, spin component:           1
  0.964   0.000  -0.000   0.000  -0.000   0.596   0.000  -0.000  -0.000  -0.000   0.000  -0.000   0.000  -0.000  -0.065  -0.000
  0.000   0.906   0.000   0.000  -0.000   0.000   0.833   0.000   0.000  -0.000   0.000  -0.000   0.000  -0.000   0.000   0.000
 -0.000  -0.000   1.028   0.000   0.000  -0.000   0.000   0.496   0.000   0.000   0.111  -0.019  -0.000   0.000   0.000   0.000
  0.000   0.000   0.000   0.906   0.000  -0.000   0.000  -0.000   0.833  -0.000  -0.000   0.000  -0.000  -0.000  -0.000  -0.000
 -0.000   0.000   0.000   0.000   0.964   0.000   0.000   0.000   0.000   0.596   0.000  -0.000  -0.065   0.000  -0.000   0.007
  0.596   0.000  -0.000  -0.000  -0.000   0.671  -0.000  -0.000   0.000  -0.000   0.000  -0.000   0.000   0.000  -0.136  -0.000
  0.000   0.833  -0.000   0.000   0.000  -0.000   1.070   0.000   0.000   0.000   0.000  -0.000  -0.000  -0.000   0.000   0.000
 -0.000   0.000   0.496   0.000   0.000  -0.000   0.000   0.470  -0.000   0.000   0.058  -0.021  -0.000   0.000   0.000   0.000
 -0.000   0.000   0.000   0.833  -0.000  -0.000   0.000  -0.000   1.070   0.000   0.000   0.000  -0.000   0.000  -0.000   0.000
 -0.000   0.000   0.000   0.000   0.596  -0.000   0.000   0.000  -0.000   0.671   0.000  -0.000  -0.136  -0.000  -0.000   0.023
 -0.000   0.000   0.111   0.000   0.000   0.000  -0.000   0.058   0.000   0.000   1.207  -0.186  -0.000   0.000   0.000   0.000
  0.000  -0.000  -0.019  -0.000  -0.000  -0.000  -0.000  -0.021  -0.000  -0.000  -0.186   0.042  -0.000  -0.000   0.000  -0.000
  0.000   0.000  -0.000   0.000  -0.065   0.000  -0.000  -0.000   0.000  -0.136   0.000   0.000   0.217  -0.000   0.000  -0.032
 -0.000   0.000   0.000  -0.000  -0.000  -0.000   0.000   0.000  -0.000  -0.000   0.000  -0.000   0.000   0.264   0.000   0.000
 -0.065  -0.000   0.000   0.000  -0.000  -0.136   0.000   0.000  -0.000  -0.000   0.000   0.000   0.000   0.000   0.217  -0.000
 -0.000  -0.000   0.000   0.000   0.007  -0.000   0.000   0.000  -0.000   0.023   0.000   0.000  -0.032  -0.000  -0.000   0.005
  0.000  -0.000   0.000   0.000   0.000   0.000  -0.000  -0.000  -0.000   0.000  -0.000   0.000  -0.000  -0.038   0.000   0.000
  0.007  -0.000  -0.000  -0.000   0.000   0.023   0.000  -0.000   0.000   0.000  -0.000   0.000  -0.000  -0.000  -0.032   0.000


------------------------ aborting loop because EDIFF is reached ----------------------------------------


    CHARGE:  cpu time    0.0920: real time    0.0919
    FORLOC:  cpu time    0.0070: real time    0.0072
    FORNL :  cpu time    0.2860: real time    0.2850
    STRESS:  cpu time    0.8379: real time    0.8374
    FORCOR:  cpu time    0.0770: real time    0.0774
    FORHAR:  cpu time    0.0170: real time    0.0171
    MIXING:  cpu time    0.0030: real time    0.0029
    OFIELD:  cpu time    0.0000: real time    0.0000

  DFT-D2 method for vdW energy calculation
  -------------------------------------------------------------------

  Parameters of vdW forcefield:
         C6(Jnm^6/mol)     R0(A)
   -----------------------------
   Mo      24.670          1.639
   S        5.570          1.683

  IVDW =   1
  VDW_RADIUS =    50.000 A
  VDW_S6 =     0.750
  VDW_SR =     1.000
  VDW_D =    20.000
  LVDW_EWALD = F

  Number of pair interactions contributing to vdW energy:   84128
  Edisp (eV):   -1.33129
    FORVDW:  cpu time    0.0230: real time    0.0279

  FORCE on cell =-STRESS in cart. coord.  units (eV):
  Direction    XX          YY          ZZ          XY          YZ          ZX
  --------------------------------------------------------------------------------------
  Alpha Z    90.42578    90.42578    90.42578
  Ewald     -12.90873   -12.90785 -1121.07429     0.00038     0.00000     0.00025
  Hartree   466.58442   466.58443  -390.19287     0.00003     0.00000    -0.00001
  E(xc)    -140.61595  -140.61595  -141.80736    -0.00001     0.00000    -0.00000
  Local   -1080.43824 -1080.43878   872.62938    -0.00032    -0.00000    -0.00011
  n-local   254.34830   251.59599   263.37586    -0.51816     0.00013    -0.00003
  augment   -51.13042   -51.13040   -53.33352     0.00003    -0.00000    -0.00001
  Kinetic   471.76964   477.36032   479.52557   -14.80058    -0.00020     0.00008
  Fock        0.00000     0.00000     0.00000     0.00000     0.00000     0.00000
  vdW         0.17103     0.17103    -0.86546     0.00000     0.00000    -0.00000
  -------------------------------------------------------------------------------------
  Total      -0.37480    -0.37480    -1.31692     0.00000    -0.00000    -0.00000
  in kB      -4.57870    -4.57870   -16.08783     0.00000    -0.00000    -0.00000
  external pressure =       -8.42 kB  Pullay stress =        0.00 kB


 VOLUME and BASIS-vectors are now :
 -----------------------------------------------------------------------------
  energy-cutoff  :      800.00
  volume of cell :      131.15
      direct lattice vectors                 reciprocal lattice vectors
     3.190315730  0.000000000  0.000000000     0.313448600  0.180969634  0.000000000
    -1.595157865  2.762894468  0.000000000     0.000000000  0.361939267  0.000000000
     0.000000000  0.000000000 14.879004300     0.000000000  0.000000000  0.067208798

  length of vectors
     3.190315730  3.190315730 14.879004300     0.361939267  0.361939267  0.067208798


 FORCES acting on ions
    electron-ion (+dipol)            ewald-force                    non-local-force                 convergence-correction
 -----------------------------------------------------------------------------------------------
   0.471E-04 -.344E-04 -.957E-05   0.928E-04 -.107E-03 0.288E-09   0.867E-17 0.173E-16 -.212E-21   0.338E-08 -.261E-08 -.467E-09
   0.662E-04 -.310E-04 -.957E-05   -.928E-04 0.107E-03 -.288E-09   -.520E-17 -.104E-16 0.132E-20   -.479E-08 0.343E-08 -.467E-09
   0.526E-03 -.304E-03 -.242E+03   0.865E-04 -.537E-04 0.247E+03   0.104E-16 0.121E-16 -.479E+01   0.583E-08 -.259E-08 0.417E-02
   -.118E-02 0.680E-03 0.242E+03   -.865E-04 0.537E-04 -.247E+03   -.360E-16 -.121E-16 0.479E+01   -.901E-08 0.442E-08 -.417E-02
   0.524E-03 0.690E-03 -.242E+03   -.638E-05 0.537E-04 0.247E+03   -.386E-16 0.607E-17 -.479E+01   0.439E-08 0.467E-08 0.417E-02
   -.121E-02 -.293E-03 0.242E+03   0.638E-05 -.537E-04 -.247E+03   0.451E-16 -.607E-17 0.479E+01   -.842E-08 -.234E-08 -.417E-02
 -----------------------------------------------------------------------------------------------
   -.122E-02 0.707E-03 -.106E-04   -.561E-14 0.109E-13 0.284E-13   -.156E-16 0.694E-17 0.888E-15   -.863E-08 0.498E-08 -.807E-09
 
 
 POSITION                                       TOTAL-FORCE (eV/Angst)
 -----------------------------------------------------------------------------------
     -0.00000      1.84193      3.71975         0.000000     -0.000000      0.000000
      1.59516      0.92096     11.15925         0.000000      0.000000      0.000000
     -0.00000      1.84193     12.72414        -0.000000     -0.000000     -0.083711
      1.59516      0.92096      2.15487         0.000000      0.000000      0.083711
      1.59516      0.92096      5.28464         0.000000     -0.000000     -0.083711
      0.00000      1.84193      9.59437        -0.000000      0.000000      0.083711
 -----------------------------------------------------------------------------------
    total drift:                               -0.001225      0.000707     -0.000011


--------------------------------------------------------------------------------------------------------



  FREE ENERGIE OF THE ION-ELECTRON SYSTEM (eV)
  ---------------------------------------------------
  free  energy   TOTEN  =       -44.94126703 eV

  energy  without entropy=      -44.94126703  energy(sigma->0) =      -44.94126703
 


--------------------------------------------------------------------------------------------------------


    POTLOK:  cpu time    0.0760: real time    0.0760


--------------------------------------------------------------------------------------------------------


     LOOP+:  cpu time   22.1156: real time   22.2328
    4ORBIT:  cpu time    0.0000: real time    0.0000
 BZINTS: Fermi energy:  3.309924; 36.000000 electrons
         Band energy: -67.744069;  BLOECHL correction:  0.000000

 total amount of memory used by VASP MPI-rank0    75271. kBytes
=======================================================================

   base      :      30000. kBytes
   nonl-proj :      19793. kBytes
   fftplans  :       5153. kBytes
   grid      :       8262. kBytes
   one-center:         46. kBytes
   wavefun   :      12017. kBytes
 
  
  
 General timing and accounting informations for this job:
 ========================================================
  
                  Total CPU time used (sec):       23.568
                            User time (sec):       23.000
                          System time (sec):        0.569
                         Elapsed time (sec):       24.110
  
                   Maximum memory used (kb):       70228.
                   Average memory used (kb):           0.
  
                          Minor page faults:        18027
                          Major page faults:          169
                 Voluntary context switches:         2721
