perl: warning: Setting locale failed.
perl: warning: Please check that your locale settings:
	LANGUAGE = (unset),
	LC_ALL = (unset),
	LC_CTYPE = "UTF-8",
	LANG = "en_US.iso885915"
    are supported and installed on your system.
perl: warning: Falling back to the standard locale ("C").
Starting job 28532538 ("jobname") on c15-6 at Fri Nov 8 11:38:50 CET 2019
 running on    4 total cores
 distrk:  each k-point on    4 cores,    1 groups
 distr:  one band on    2 cores,    2 groups
 using from now: INCAR     
 vasp.5.4.4.18Apr17-6-g9f103f2a35 (build Jun 30 2017 11:15:00) complex          
  
 POSCAR found type information on POSCAR  Mo S 
 POSCAR found :  2 types and       6 ions
 scaLAPACK will be used
 WARNING: PSMAXN for non-local potential too small
 LDA part: xc-table for Pade appr. of Perdew
 POSCAR, INCAR and KPOINTS ok, starting setup
 FFT: planning ...
 WAVECAR not read
 WARNING: random wavefunctions but no delay for mixing, default for NELMDL
 entering main loop
       N       E                     dE             d eps       ncg     rms          rms(c)
DAV:   1     0.270035740686E+03    0.27004E+03   -0.19985E+04   880   0.199E+03
DAV:   2    -0.191030141822E+02   -0.28914E+03   -0.28117E+03  1158   0.326E+02
DAV:   3    -0.460005492852E+02   -0.26898E+02   -0.26756E+02  1194   0.900E+01
DAV:   4    -0.468011275189E+02   -0.80058E+00   -0.79929E+00  1194   0.172E+01
DAV:   5    -0.468244631236E+02   -0.23336E-01   -0.23329E-01  1276   0.277E+00    0.974E+00
RMM:   6    -0.444342319680E+02    0.23902E+01   -0.24302E+01   979   0.197E+01    0.336E+00
RMM:   7    -0.436993718247E+02    0.73486E+00   -0.19212E+00   972   0.563E+00    0.178E+00
RMM:   8    -0.436366259768E+02    0.62746E-01   -0.90563E-01  1008   0.337E+00    0.839E-01
RMM:   9    -0.436267642530E+02    0.98617E-02   -0.30464E-01  1035   0.233E+00    0.587E-01
RMM:  10    -0.436098183224E+02    0.16946E-01   -0.70777E-02  1050   0.115E+00    0.838E-02
RMM:  11    -0.436098402890E+02   -0.21967E-04   -0.32814E-03  1110   0.239E-01    0.306E-02
RMM:  12    -0.436099800351E+02   -0.13975E-03   -0.52516E-04  1126   0.117E-01    0.167E-02
RMM:  13    -0.436099897981E+02   -0.97630E-05   -0.24483E-04  1155   0.629E-02    0.163E-02
RMM:  14    -0.436099800171E+02    0.97810E-05   -0.52014E-05   846   0.346E-02
   1 F= -.44941267E+02 E0= -.44941267E+02  d E =0.000000E+00

Currently Loaded Modulefiles:
  1) Anaconda3/5.1.0       3) vesta/3.3.8           5) intel/2016.1
  2) gnuplot/5.0.4         4) imagemagick/6.7.9-0   6) vasp/5.4.1.Feb16

Job script resource usage:
       JobID  MaxVMSize     MaxRSS 
------------ ---------- ---------- 
28532538.ba+    216888K      2581K 

Job step resource usage:
       JobID    JobName  AllocCPUS  MaxVMSize     MaxRSS    Elapsed ExitCode 
------------ ---------- ---------- ---------- ---------- ---------- -------- 
28532538        jobname          4                         00:00:26      0:0 
28532538.0    pmi_proxy          1    279832K       538K   00:00:25      0:0 

Job 28532538 ("jobname") completed on c15-6 at Fri Nov 8 11:39:15 CET 2019
