<?xml version="1.0" encoding="ISO-8859-1"?>
<modeling>
 <generator>
  <i name="program" type="string">vasp </i>
  <i name="version" type="string">5.4.4.18Apr17-6-g9f103f2a35  </i>
  <i name="subversion" type="string">(build Jun 30 2017 11:15:00) complex            parallel </i>
  <i name="platform" type="string">STALLO_VASP_5.4.4 </i>
  <i name="date" type="string">2019 11 08 </i>
  <i name="time" type="string">11:38:51 </i>
 </generator>
 <incar>
  <i type="string" name="PREC">normal    ! low/normal/accurate</i>
  <i type="string" name="ALGO"> Fast      ! Algorithm for electronic re</i>
  <i type="int" name="ISPIN">     1</i>
  <i type="int" name="NELMIN">     4</i>
  <i name="EDIFF">      0.00001000</i>
  <i type="int" name="NSW">     0</i>
  <i name="ENCUT">    800.00000000</i>
  <i type="logical" name="LREAL"> F  </i>
  <i type="int" name="ISMEAR">    -5</i>
  <i name="SIGMA">      0.20000000</i>
  <i type="logical" name="LWAVE"> F  </i>
  <v type="int" name="KPOINT_BSE">    -1     0     0     0</v>
 </incar>
 <structure name="primitive_cell" >
  <crystal>
   <varray name="basis" >
    <v>       3.19031573       0.00000000       0.00000000 </v>
    <v>      -1.59515786       2.76289447       0.00000000 </v>
    <v>       0.00000000       0.00000000      14.87900430 </v>
   </varray>
   <i name="volume">    131.15106795 </i>
   <varray name="rec_basis" >
    <v>       0.31344860       0.18096963       0.00000000 </v>
    <v>       0.00000000       0.36193927       0.00000000 </v>
    <v>       0.00000000       0.00000000       0.06720880 </v>
   </varray>
  </crystal>
  <varray name="positions" >
   <v>       0.33333300      -0.33333300       0.25000000 </v>
   <v>      -0.33333400       0.33333300       0.35517400 </v>
   <v>      -0.33333300       0.33333300       0.14482600 </v>
   <v>       0.33333300      -0.33333300      -0.14482600 </v>
   <v>       0.33333400      -0.33333300      -0.35517400 </v>
   <v>      -0.33333300       0.33333300      -0.25000000 </v>
  </varray>
 </structure>
 <varray name="primitive_index" >
  <v type="int" >        1 </v>
  <v type="int" >        5 </v>
  <v type="int" >        4 </v>
  <v type="int" >        3 </v>
  <v type="int" >        6 </v>
  <v type="int" >        2 </v>
 </varray>
 <kpoints>
  <generation param="Gamma">
   <v type="int" name="divisions">       8        8        2 </v>
   <v name="usershift">      0.00000000       0.00000000       0.00000000 </v>
   <v name="genvec1">      0.12500000       0.00000000       0.00000000 </v>
   <v name="genvec2">      0.00000000       0.12500000       0.00000000 </v>
   <v name="genvec3">      0.00000000       0.00000000       0.50000000 </v>
   <v name="shift">      0.00000000       0.00000000       0.00000000 </v>
  </generation>
  <varray name="kpointlist" >
   <v>       0.00000000       0.00000000       0.00000000 </v>
   <v>       0.12500000      -0.00000000       0.00000000 </v>
   <v>       0.25000000      -0.00000000       0.00000000 </v>
   <v>       0.37500000      -0.00000000       0.00000000 </v>
   <v>       0.50000000      -0.00000000       0.00000000 </v>
   <v>       0.12500000       0.12500000       0.00000000 </v>
   <v>       0.25000000       0.12500000       0.00000000 </v>
   <v>       0.37500000       0.12500000       0.00000000 </v>
   <v>       0.25000000       0.25000000       0.00000000 </v>
   <v>       0.37500000       0.25000000       0.00000000 </v>
   <v>       0.00000000       0.00000000       0.50000000 </v>
   <v>       0.12500000      -0.00000000       0.50000000 </v>
   <v>       0.25000000      -0.00000000       0.50000000 </v>
   <v>       0.37500000      -0.00000000       0.50000000 </v>
   <v>       0.50000000      -0.00000000       0.50000000 </v>
   <v>       0.12500000       0.12500000       0.50000000 </v>
   <v>       0.25000000       0.12500000       0.50000000 </v>
   <v>       0.37500000       0.12500000       0.50000000 </v>
   <v>       0.25000000       0.25000000       0.50000000 </v>
   <v>       0.37500000       0.25000000       0.50000000 </v>
  </varray>
  <varray name="weights" >
   <v>       0.00781250 </v>
   <v>       0.04687500 </v>
   <v>       0.04687500 </v>
   <v>       0.04687500 </v>
   <v>       0.02343750 </v>
   <v>       0.04687500 </v>
   <v>       0.09375000 </v>
   <v>       0.09375000 </v>
   <v>       0.04687500 </v>
   <v>       0.04687500 </v>
   <v>       0.00781250 </v>
   <v>       0.04687500 </v>
   <v>       0.04687500 </v>
   <v>       0.04687500 </v>
   <v>       0.02343750 </v>
   <v>       0.04687500 </v>
   <v>       0.09375000 </v>
   <v>       0.09375000 </v>
   <v>       0.04687500 </v>
   <v>       0.04687500 </v>
  </varray>
  <varray name="tetrahedronlist"  type="int" >
   <v type="int" >        8        2        2        6       12 </v>
   <v type="int" >        8        1        2        2       12 </v>
   <v type="int" >        4        1        2       11       12 </v>
   <v type="int" >        4        2        6       12       16 </v>
   <v type="int" >        8        2       12       12       16 </v>
   <v type="int" >        8        2       11       12       12 </v>
   <v type="int" >        8        3        6        7       16 </v>
   <v type="int" >        8        2        3        6       16 </v>
   <v type="int" >        4        2        3       12       16 </v>
   <v type="int" >        4        3        7       16       17 </v>
   <v type="int" >        8        3       13       16       17 </v>
   <v type="int" >        8        3       12       13       16 </v>
   <v type="int" >        8        4        7        8       17 </v>
   <v type="int" >        8        3        4        7       17 </v>
   <v type="int" >        4        3        4       13       17 </v>
   <v type="int" >        4        4        8       17       18 </v>
   <v type="int" >        8        4       14       17       18 </v>
   <v type="int" >        8        4       13       14       17 </v>
   <v type="int" >        8        5        8        8       18 </v>
   <v type="int" >        8        4        5        8       18 </v>
   <v type="int" >        4        4        5       14       18 </v>
   <v type="int" >        4        5        8       18       18 </v>
   <v type="int" >        4        5       15       18       18 </v>
   <v type="int" >        8        5       14       15       18 </v>
   <v type="int" >        8        4        7        8       18 </v>
   <v type="int" >        4        4        5       15       18 </v>
   <v type="int" >        4        4        7       17       18 </v>
   <v type="int" >        8        4       14       15       18 </v>
   <v type="int" >        8        3        6        7       17 </v>
   <v type="int" >        4        3        4       14       17 </v>
   <v type="int" >        4        3        6       16       17 </v>
   <v type="int" >        8        3       13       14       17 </v>
   <v type="int" >        4        2        2        6       16 </v>
   <v type="int" >        4        2        3       13       16 </v>
   <v type="int" >        4        2        2       12       16 </v>
   <v type="int" >        8        2       12       13       16 </v>
   <v type="int" >        4        1        2       12       12 </v>
   <v type="int" >        4        1       11       12       12 </v>
   <v type="int" >        8        3        6        7       13 </v>
   <v type="int" >        8        2        3        6       13 </v>
   <v type="int" >        4        2        6       12       13 </v>
   <v type="int" >        4        6        7       13       17 </v>
   <v type="int" >        8        6       13       16       17 </v>
   <v type="int" >        8        6       12       13       16 </v>
   <v type="int" >        8        7        7        9       17 </v>
   <v type="int" >        8        6        7        7       17 </v>
   <v type="int" >        4        6        7       16       17 </v>
   <v type="int" >        4        7        9       17       19 </v>
   <v type="int" >        8        7       17       17       19 </v>
   <v type="int" >        8        7       16       17       17 </v>
   <v type="int" >        8        8        9       10       19 </v>
   <v type="int" >        8        7        8        9       19 </v>
   <v type="int" >        4        7        8       17       19 </v>
   <v type="int" >        4        8       10       19       20 </v>
   <v type="int" >        8        8       18       19       20 </v>
   <v type="int" >        8        8       17       18       19 </v>
   <v type="int" >        8        8        9       10       20 </v>
   <v type="int" >        4        8        8       10       20 </v>
   <v type="int" >        4        8        8       18       20 </v>
   <v type="int" >        4        8        9       19       20 </v>
   <v type="int" >        8        8       18       18       20 </v>
   <v type="int" >        4        7        7        9       19 </v>
   <v type="int" >        4        7        8       18       19 </v>
   <v type="int" >        4        7        7       17       19 </v>
   <v type="int" >        8        7       17       18       19 </v>
   <v type="int" >        4        6        7       17       17 </v>
   <v type="int" >        4        3        6       13       17 </v>
   <v type="int" >        4        6       16       17       17 </v>
   <v type="int" >        4        2        6       13       16 </v>
   <v type="int" >        8        4        7        8       14 </v>
   <v type="int" >        8        3        4        7       14 </v>
   <v type="int" >        4        3        7       13       14 </v>
   <v type="int" >        4        7        8       14       18 </v>
   <v type="int" >        8        7       14       17       18 </v>
   <v type="int" >        8        7       13       14       17 </v>
   <v type="int" >        8        8        9       10       18 </v>
   <v type="int" >        8        7        8        9       18 </v>
   <v type="int" >        4        7        9       17       18 </v>
   <v type="int" >        4        9       10       18       20 </v>
   <v type="int" >        8        9       18       19       20 </v>
   <v type="int" >        8        9       17       18       19 </v>
   <v type="int" >        4       10       10       10       20 </v>
   <v type="int" >        8        9       10       10       20 </v>
   <v type="int" >        4        9       10       19       20 </v>
   <v type="int" >        4       10       10       20       20 </v>
   <v type="int" >        4       10       20       20       20 </v>
   <v type="int" >        8       10       19       20       20 </v>
   <v type="int" >        4        9       10       20       20 </v>
   <v type="int" >        4        8        9       18       20 </v>
   <v type="int" >        4        9       19       20       20 </v>
   <v type="int" >        4        7        9       18       19 </v>
   <v type="int" >        4        4        7       14       18 </v>
   <v type="int" >        4        3        7       14       17 </v>
   <v type="int" >        4        5        8        8       15 </v>
   <v type="int" >        8        4        5        8       15 </v>
   <v type="int" >        4        4        8       14       15 </v>
   <v type="int" >        4        8        8       15       18 </v>
   <v type="int" >        8        8       15       18       18 </v>
   <v type="int" >        8        8       14       15       18 </v>
   <v type="int" >        8        8        8       10       18 </v>
   <v type="int" >        4        8       10       18       18 </v>
   <v type="int" >        4        9       10       18       19 </v>
   <v type="int" >        8       10       18       19       20 </v>
   <v type="int" >        4       10       18       18       20 </v>
   <v type="int" >        4        9       10       10       19 </v>
   <v type="int" >        4       10       10       19       20 </v>
   <v type="int" >        4        8       10       18       19 </v>
   <v type="int" >        4        8       10       18       20 </v>
   <v type="int" >        4        5        8       15       18 </v>
   <v type="int" >        4        4        8       15       18 </v>
   <v type="int" >        8        4        5        8       14 </v>
   <v type="int" >        4        5        8       14       15 </v>
   <v type="int" >        4        7        8       14       17 </v>
   <v type="int" >        8        8       14       17       18 </v>
   <v type="int" >        8        7        8        9       17 </v>
   <v type="int" >        4        8        9       17       18 </v>
   <v type="int" >        4        7        9       17       17 </v>
   <v type="int" >        4        9       17       17       19 </v>
   <v type="int" >        4        8        9       17       19 </v>
   <v type="int" >        4        4        8       14       17 </v>
   <v type="int" >        4        5        8       14       18 </v>
   <v type="int" >        8        3        4        7       13 </v>
   <v type="int" >        4        4        7       13       14 </v>
   <v type="int" >        4        6        7       13       16 </v>
   <v type="int" >        8        7       13       16       17 </v>
   <v type="int" >        4        6        7        7       16 </v>
   <v type="int" >        4        7        7       16       17 </v>
   <v type="int" >        4        3        7       13       16 </v>
   <v type="int" >        4        4        7       13       17 </v>
   <v type="int" >        8        2        3        6       12 </v>
   <v type="int" >        4        3        6       12       13 </v>
   <v type="int" >        4        2        6       12       12 </v>
   <v type="int" >        4        6       12       12       16 </v>
   <v type="int" >        4        3        6       12       16 </v>
   <v type="int" >        4        1        2        2       11 </v>
   <v type="int" >        4        2        2       11       12 </v>
  </varray>
  <i name="volumeweight">      0.00130208 </i>
 </kpoints>
 <parameters>
  <separator name="general" >
   <i type="string" name="SYSTEM">unknown system</i>
   <i type="logical" name="LCOMPAT"> F  </i>
  </separator>
  <separator name="electronic" >
   <i type="string" name="PREC">normal</i>
   <i name="ENMAX">    800.00000000</i>
   <i name="ENAUG">    345.27800000</i>
   <i name="EDIFF">      0.00001000</i>
   <i type="int" name="IALGO">    68</i>
   <i type="int" name="IWAVPR">    10</i>
   <i type="int" name="NBANDS">    22</i>
   <i name="NELECT">     36.00000000</i>
   <i type="int" name="TURBO">     0</i>
   <i type="int" name="IRESTART">     0</i>
   <i type="int" name="NREBOOT">     0</i>
   <i type="int" name="NMIN">     0</i>
   <i name="EREF">      0.00000000</i>
   <separator name="electronic smearing" >
    <i type="int" name="ISMEAR">    -5</i>
    <i name="SIGMA">      0.20000000</i>
    <i name="KSPACING">      0.50000000</i>
    <i type="logical" name="KGAMMA"> T  </i>
   </separator>
   <separator name="electronic projectors" >
    <i type="logical" name="LREAL"> F  </i>
    <v name="ROPT">      0.00000000      0.00000000</v>
    <i type="int" name="LMAXPAW">  -100</i>
    <i type="int" name="LMAXMIX">     2</i>
    <i type="logical" name="NLSPLINE"> F  </i>
   </separator>
   <separator name="electronic startup" >
    <i type="int" name="ISTART">     0</i>
    <i type="int" name="ICHARG">     2</i>
    <i type="int" name="INIWAV">     1</i>
   </separator>
   <separator name="electronic spin" >
    <i type="int" name="ISPIN">     1</i>
    <i type="logical" name="LNONCOLLINEAR"> F  </i>
    <v name="MAGMOM">      1.00000000      1.00000000      1.00000000      1.00000000      1.00000000      1.00000000</v>
    <i name="NUPDOWN">     -1.00000000</i>
    <i type="logical" name="LSORBIT"> F  </i>
    <v name="SAXIS">      0.00000000      0.00000000      1.00000000</v>
    <i type="logical" name="LSPIRAL"> F  </i>
    <v name="QSPIRAL">      0.00000000      0.00000000      0.00000000</v>
    <i type="logical" name="LZEROZ"> F  </i>
   </separator>
   <separator name="electronic exchange-correlation" >
    <i type="logical" name="LASPH"> F  </i>
    <i type="logical" name="LMETAGGA"> F  </i>
   </separator>
   <separator name="electronic convergence" >
    <i type="int" name="NELM">    60</i>
    <i type="int" name="NELMDL">     0</i>
    <i type="int" name="NELMIN">     4</i>
    <i name="ENINI">    800.00000000</i>
    <separator name="electronic convergence detail" >
     <i type="logical" name="LDIAG"> T  </i>
     <i type="logical" name="LSUBROT"> F  </i>
     <i name="WEIMIN">      0.00000000</i>
     <i name="EBREAK">      0.00000011</i>
     <i name="DEPER">      0.30000000</i>
     <i type="int" name="NRMM">     4</i>
     <i name="TIME">      0.40000000</i>
    </separator>
   </separator>
   <separator name="electronic mixer" >
    <i name="AMIX">      0.40000000</i>
    <i name="BMIX">      1.00000000</i>
    <i name="AMIN">      0.10000000</i>
    <i name="AMIX_MAG">      1.60000000</i>
    <i name="BMIX_MAG">      1.00000000</i>
    <separator name="electronic mixer details" >
     <i type="int" name="IMIX">     4</i>
     <i type="logical" name="MIXFIRST"> F  </i>
     <i type="int" name="MAXMIX">   -45</i>
     <i name="WC">    100.00000000</i>
     <i type="int" name="INIMIX">     1</i>
     <i type="int" name="MIXPRE">     1</i>
     <i type="int" name="MREMOVE">     5</i>
    </separator>
   </separator>
   <separator name="electronic dipolcorrection" >
    <i type="logical" name="LDIPOL"> F  </i>
    <i type="logical" name="LMONO"> F  </i>
    <i type="int" name="IDIPOL">     0</i>
    <i name="EPSILON">      1.00000000</i>
    <v name="DIPOL">   -100.00000000   -100.00000000   -100.00000000</v>
    <i name="EFIELD">      0.00000000</i>
   </separator>
  </separator>
  <separator name="grids" >
   <i type="int" name="NGX">    24</i>
   <i type="int" name="NGY">    24</i>
   <i type="int" name="NGZ">   108</i>
   <i type="int" name="NGXF">    48</i>
   <i type="int" name="NGYF">    48</i>
   <i type="int" name="NGZF">   216</i>
   <i type="logical" name="ADDGRID"> F  </i>
  </separator>
  <separator name="ionic" >
   <i type="int" name="NSW">     0</i>
   <i type="int" name="IBRION">    -1</i>
   <i type="int" name="MDALGO">     0</i>
   <i type="int" name="ISIF">     2</i>
   <i name="PSTRESS">      0.00000000</i>
   <i name="EDIFFG">      0.00010000</i>
   <i type="int" name="NFREE">     0</i>
   <i name="POTIM">      0.50000000</i>
   <i name="SMASS">     -3.00000000</i>
   <i name="SCALEE">      1.00000000</i>
  </separator>
  <separator name="ionic md" >
   <i name="TEBEG">      0.00010000</i>
   <i name="TEEND">      0.00010000</i>
   <i type="int" name="NBLOCK">     1</i>
   <i type="int" name="KBLOCK">     1</i>
   <i type="int" name="NPACO">   256</i>
   <i name="APACO">     16.00000000</i>
  </separator>
  <separator name="symmetry" >
   <i type="int" name="ISYM">     2</i>
   <i name="SYMPREC">      0.00001000</i>
  </separator>
  <separator name="dos" >
   <i type="int" name="LORBIT">     0</i>
   <v name="RWIGS">     -1.00000000     -1.00000000</v>
   <i type="int" name="NEDOS">   301</i>
   <i name="EMIN">     10.00000000</i>
   <i name="EMAX">    -10.00000000</i>
   <i name="EFERMI">      0.00000000</i>
  </separator>
  <separator name="writing" >
   <i type="int" name="NWRITE">     2</i>
   <i type="logical" name="LWAVE"> F  </i>
   <i type="logical" name="LDOWNSAMPLE"> F  </i>
   <i type="logical" name="LCHARG"> T  </i>
   <i type="logical" name="LPARD"> F  </i>
   <i type="logical" name="LVTOT"> F  </i>
   <i type="logical" name="LVHAR"> F  </i>
   <i type="logical" name="LELF"> F  </i>
   <i type="logical" name="LOPTICS"> F  </i>
   <v name="STM">      0.00000000      0.00000000      0.00000000      0.00000000      0.00000000      0.00000000      0.00000000</v>
  </separator>
  <separator name="performance" >
   <i type="int" name="NPAR">     2</i>
   <i type="int" name="NSIM">     4</i>
   <i type="int" name="NBLK">    -1</i>
   <i type="logical" name="LPLANE"> T  </i>
   <i type="logical" name="LSCALAPACK"> T  </i>
   <i type="logical" name="LSCAAWARE"> F  </i>
   <i type="logical" name="LSCALU"> F  </i>
   <i type="logical" name="LASYNC"> F  </i>
   <i type="logical" name="LORBITALREAL"> F  </i>
  </separator>
  <separator name="miscellaneous" >
   <i type="int" name="IDIOT">     3</i>
   <i type="int" name="ISPECIAL">     0</i>
   <i type="logical" name="LMUSIC"> F  </i>
   <v name="POMASS">     95.94000000     32.06600000</v>
   <v name="DARWINR">      0.00000000      0.00000000</v>
   <v name="DARWINV">      1.00000000      1.00000000</v>
   <i type="logical" name="LCORR"> T  </i>
  </separator>
  <i type="logical" name="GGA_COMPAT"> T  </i>
  <i type="logical" name="LBERRY"> F  </i>
  <i type="int" name="ICORELEVEL">     0</i>
  <i type="logical" name="LDAU"> F  </i>
  <i type="int" name="I_CONSTRAINED_M">     0</i>
  <separator name="electronic exchange-correlation" >
   <i type="string" name="GGA">--</i>
   <i type="int" name="VOSKOWN">     0</i>
   <i type="logical" name="LHFCALC"> F  </i>
   <i type="string" name="PRECFOCK"></i>
   <i type="logical" name="LSYMGRAD"> F  </i>
   <i type="logical" name="LHFONE"> F  </i>
   <i type="logical" name="LRHFCALC"> F  </i>
   <i type="logical" name="LTHOMAS"> F  </i>
   <i type="logical" name="LMODELHF"> F  </i>
   <i name="ENCUT4O">     -1.00000000</i>
   <i type="int" name="EXXOEP">     0</i>
   <i type="int" name="FOURORBIT">     0</i>
   <i name="AEXX">      0.00000000</i>
   <i name="HFALPHA">      0.00000000</i>
   <i name="MCALPHA">      0.00000000</i>
   <i name="ALDAX">      1.00000000</i>
   <i name="AGGAX">      1.00000000</i>
   <i name="ALDAC">      1.00000000</i>
   <i name="AGGAC">      1.00000000</i>
   <i type="int" name="NKREDX">     1</i>
   <i type="int" name="NKREDY">     1</i>
   <i type="int" name="NKREDZ">     1</i>
   <i type="logical" name="SHIFTRED"> F  </i>
   <i type="logical" name="ODDONLY"> F  </i>
   <i type="logical" name="EVENONLY"> F  </i>
   <i type="int" name="LMAXFOCK">     0</i>
   <i type="int" name="NMAXFOCKAE">     0</i>
   <i type="logical" name="LFOCKAEDFT"> F  </i>
   <i name="HFSCREEN">      0.00000000</i>
   <i name="HFSCREENC">      0.00000000</i>
   <i type="int" name="NBANDSGWLOW">     0</i>
  </separator>
  <separator name="vdW DFT" >
   <i type="logical" name="LUSE_VDW"> F  </i>
   <i name="Zab_VDW">     -0.84910000</i>
   <i name="PARAM1">      0.12340000</i>
   <i name="PARAM2">      1.00000000</i>
   <i name="PARAM3">      0.00000000</i>
  </separator>
  <separator name="model GW" >
   <i type="int" name="MODEL_GW">     0</i>
   <i name="MODEL_EPS0">     13.11510680</i>
   <i name="MODEL_ALPHA">      1.00000000</i>
  </separator>
  <separator name="linear response parameters" >
   <i type="logical" name="LEPSILON"> F  </i>
   <i type="logical" name="LRPA"> F  </i>
   <i type="logical" name="LNABLA"> F  </i>
   <i type="logical" name="LVEL"> F  </i>
   <i type="int" name="KINTER">     0</i>
   <i name="CSHIFT">      0.10000000</i>
   <i name="OMEGAMAX">     -1.00000000</i>
   <i name="DEG_THRESHOLD">      0.00200000</i>
   <i name="RTIME">     -0.10000000</i>
   <i name="WPLASMAI">      0.00000000</i>
   <v name="DFIELD">      0.00000000      0.00000000      0.00000000</v>
   <v name="WPLASMA">      0.00000000      0.00000000      0.00000000      0.00000000      0.00000000      0.00000000      0.00000000      0.00000000      0.00000000</v>
  </separator>
  <separator name="orbital magnetization" >
   <i type="logical" name="NUCIND"> F  </i>
   <v name="MAGPOS">      0.00000000      0.00000000      0.00000000</v>
   <i type="logical" name="LNICSALL"> T  </i>
   <i type="logical" name="ORBITALMAG"> F  </i>
   <i type="logical" name="LMAGBLOCH"> F  </i>
   <i type="logical" name="LCHIMAG"> F  </i>
   <i type="logical" name="LGAUGE"> T  </i>
   <i type="int" name="MAGATOM">     0</i>
   <v name="MAGDIPOL">      0.00000000      0.00000000      0.00000000</v>
   <v name="AVECCONST">      0.00000000      0.00000000      0.00000000</v>
  </separator>
  <separator name="response functions" >
   <i type="logical" name="LADDER"> F  </i>
   <i type="logical" name="LRPAFORCE"> F  </i>
   <i type="logical" name="LFXC"> F  </i>
   <i type="logical" name="LHARTREE"> T  </i>
   <i type="int" name="IBSE">     0</i>
   <v type="int" name="KPOINT">    -1     0     0     0</v>
   <i type="logical" name="LTCTE"> F  </i>
   <i type="logical" name="LTETE"> F  </i>
   <i type="logical" name="LTRIPLET"> F  </i>
   <i type="logical" name="LFXCEPS"> F  </i>
   <i type="logical" name="LFXHEG"> F  </i>
   <i type="int" name="NATURALO">     2</i>
   <i type="logical" name="L2ORDER"> F  </i>
   <i type="logical" name="LMP2LT"> F  </i>
   <i type="logical" name="LUSEW"> F  </i>
   <i name="ENCUTGW">     -2.00000000</i>
   <i name="ENCUTGWSOFT">     -2.00000000</i>
   <i name="ENCUTLF">     -1.00000000</i>
   <i type="int" name="LMAXMP2">    -1</i>
   <i name="SCISSOR">      0.00000000</i>
   <i type="int" name="NOMEGA">     0</i>
   <i type="int" name="NOMEGAR">     0</i>
   <i type="int" name="NBANDSGW">    -1</i>
   <i type="int" name="NBANDSO">    -1</i>
   <i type="int" name="NBANDSV">    -1</i>
   <i type="int" name="NELM">     1</i>
   <i type="int" name="NELMHF">     1</i>
   <i type="int" name="DIM">     3</i>
   <i type="int" name="ANTIRES">     0</i>
   <i name="OMEGAMAX">    -30.00000000</i>
   <i name="OMEGAMIN">    -30.00000000</i>
   <i name="OMEGATL">   -200.00000000</i>
   <i type="int" name="OMEGAGRID">   140</i>
   <i name="CSHIFT">     -0.10000000</i>
   <i type="logical" name="SELFENERGY"> F  </i>
   <i type="logical" name="LSPECTRAL"> F  </i>
   <i type="logical" name="LSPECTRALGW"> F  </i>
   <i type="logical" name="LSINGLES"> F  </i>
   <i type="logical" name="LFERMIGW"> F  </i>
   <i type="logical" name="ODDONLYGW"> F  </i>
   <i type="logical" name="EVENONLYGW"> F  </i>
   <i type="int" name="NKREDLFX">     1</i>
   <i type="int" name="NKREDLFY">     1</i>
   <i type="int" name="NKREDLFZ">     1</i>
   <i type="int" name="MAXMEM">  2800</i>
   <i type="int" name="TELESCOPE">     0</i>
   <i type="int" name="TAUPAR">     1</i>
   <i type="int" name="OMEGAPAR">    -1</i>
   <i name="LAMBDA">      1.00000000</i>
  </separator>
  <separator name="External order field" >
   <i name="OFIELD_KAPPA">      0.00000000</i>
   <v name="OFIELD_K">      0.00000000      0.00000000      0.00000000</v>
   <i name="OFIELD_Q6_NEAR">      0.00000000</i>
   <i name="OFIELD_Q6_FAR">      0.00000000</i>
   <i name="OFIELD_A">      0.00000000</i>
  </separator>
 </parameters>
 <atominfo>
  <atoms>       6 </atoms>
  <types>       2 </types>
  <array name="atoms" >
   <dimension dim="1">ion</dimension>
   <field type="string">element</field>
   <field type="int">atomtype</field>
   <set>
    <rc><c>Mo</c><c>   1</c></rc>
    <rc><c>Mo</c><c>   1</c></rc>
    <rc><c>S </c><c>   2</c></rc>
    <rc><c>S </c><c>   2</c></rc>
    <rc><c>S </c><c>   2</c></rc>
    <rc><c>S </c><c>   2</c></rc>
   </set>
  </array>
  <array name="atomtypes" >
   <dimension dim="1">type</dimension>
   <field type="int">atomspertype</field>
   <field type="string">element</field>
   <field>mass</field>
   <field>valence</field>
   <field type="string">pseudopotential</field>
   <set>
    <rc><c>   2</c><c>Mo</c><c>     95.94000000</c><c>      6.00000000</c><c> PAW_PBE Mo 08Apr2002                   </c></rc>
    <rc><c>   4</c><c>S </c><c>     32.06600000</c><c>      6.00000000</c><c>  PAW_PBE S 17Jan2003                   </c></rc>
   </set>
  </array>
 </atominfo>
 <structure name="initialpos" >
  <crystal>
   <varray name="basis" >
    <v>       3.19031573       0.00000000       0.00000000 </v>
    <v>      -1.59515786       2.76289447       0.00000000 </v>
    <v>       0.00000000       0.00000000      14.87900430 </v>
   </varray>
   <i name="volume">    131.15106795 </i>
   <varray name="rec_basis" >
    <v>       0.31344860       0.18096963       0.00000000 </v>
    <v>       0.00000000       0.36193927       0.00000000 </v>
    <v>       0.00000000       0.00000000       0.06720880 </v>
   </varray>
  </crystal>
  <varray name="positions" >
   <v>       0.33333300       0.66666700       0.25000000 </v>
   <v>       0.66666700       0.33333300       0.75000000 </v>
   <v>       0.33333300       0.66666700       0.85517400 </v>
   <v>       0.66666700       0.33333300       0.14482600 </v>
   <v>       0.66666600       0.33333300       0.35517400 </v>
   <v>       0.33333400       0.66666700       0.64482600 </v>
  </varray>
 </structure>
 <calculation>
  <scstep>
   <time name="dav">    1.15    1.15</time>
   <time name="total">    1.24    1.26</time>
   <energy>
    <i name="alphaZ">     90.42577596 </i>
    <i name="ewald">  -1146.88905665 </i>
    <i name="hartreedc">   -535.10238363 </i>
    <i name="XCdc">    -72.59368065 </i>
    <i name="pawpsdc">    813.77302396 </i>
    <i name="pawaedc">   -658.68146406 </i>
    <i name="eentropy">      0.00000000 </i>
    <i name="bandstr">    236.77800332 </i>
    <i name="atom">   1542.32552242 </i>
    <i name="e_fr_energy">    270.03574069 </i>
    <i name="e_wo_entrp">    270.03574069 </i>
    <i name="e_0_energy">    270.03574069 </i>
   </energy>
  </scstep>
  <scstep>
   <time name="dav">    1.40    1.41</time>
   <time name="total">    1.40    1.41</time>
   <energy>
    <i name="e_fr_energy">    -19.10301418 </i>
    <i name="e_wo_entrp">    -19.10301418 </i>
    <i name="e_0_energy">    -19.10301418 </i>
   </energy>
  </scstep>
  <scstep>
   <time name="dav">    1.44    1.44</time>
   <time name="total">    1.44    1.44</time>
   <energy>
    <i name="e_fr_energy">    -46.00054929 </i>
    <i name="e_wo_entrp">    -46.00054929 </i>
    <i name="e_0_energy">    -46.00054929 </i>
   </energy>
  </scstep>
  <scstep>
   <time name="dav">    1.44    1.44</time>
   <time name="total">    1.44    1.44</time>
   <energy>
    <i name="e_fr_energy">    -46.80112752 </i>
    <i name="e_wo_entrp">    -46.80112752 </i>
    <i name="e_0_energy">    -46.80112752 </i>
   </energy>
  </scstep>
  <scstep>
   <time name="dav">    1.52    1.52</time>
   <time name="total">    1.62    1.62</time>
   <energy>
    <i name="e_fr_energy">    -46.82446312 </i>
    <i name="e_wo_entrp">    -46.82446312 </i>
    <i name="e_0_energy">    -46.82446312 </i>
   </energy>
  </scstep>
  <scstep>
   <time name="diag">    0.21    0.21</time>
   <time name="diis">    1.01    1.01</time>
   <time name="orth">    0.02    0.02</time>
   <time name="total">    1.41    1.42</time>
   <energy>
    <i name="e_fr_energy">    -44.43423197 </i>
    <i name="e_wo_entrp">    -44.43423197 </i>
    <i name="e_0_energy">    -44.43423197 </i>
   </energy>
  </scstep>
  <scstep>
   <time name="diag">    0.21    0.21</time>
   <time name="diis">    1.00    1.00</time>
   <time name="orth">    0.02    0.02</time>
   <time name="total">    1.40    1.40</time>
   <energy>
    <i name="e_fr_energy">    -43.69937182 </i>
    <i name="e_wo_entrp">    -43.69937182 </i>
    <i name="e_0_energy">    -43.69937182 </i>
   </energy>
  </scstep>
  <scstep>
   <time name="diag">    0.21    0.21</time>
   <time name="diis">    1.03    1.03</time>
   <time name="orth">    0.02    0.02</time>
   <time name="total">    1.43    1.44</time>
   <energy>
    <i name="e_fr_energy">    -43.63662598 </i>
    <i name="e_wo_entrp">    -43.63662598 </i>
    <i name="e_0_energy">    -43.63662598 </i>
   </energy>
  </scstep>
  <scstep>
   <time name="diag">    0.21    0.21</time>
   <time name="diis">    1.07    1.06</time>
   <time name="orth">    0.02    0.02</time>
   <time name="total">    1.47    1.47</time>
   <energy>
    <i name="e_fr_energy">    -43.62676425 </i>
    <i name="e_wo_entrp">    -43.62676425 </i>
    <i name="e_0_energy">    -43.62676425 </i>
   </energy>
  </scstep>
  <scstep>
   <time name="diag">    0.21    0.21</time>
   <time name="diis">    1.09    1.09</time>
   <time name="orth">    0.02    0.02</time>
   <time name="total">    1.49    1.49</time>
   <energy>
    <i name="e_fr_energy">    -43.60981832 </i>
    <i name="e_wo_entrp">    -43.60981832 </i>
    <i name="e_0_energy">    -43.60981832 </i>
   </energy>
  </scstep>
  <scstep>
   <time name="diag">    0.21    0.21</time>
   <time name="diis">    1.14    1.14</time>
   <time name="orth">    0.02    0.02</time>
   <time name="total">    1.54    1.54</time>
   <energy>
    <i name="e_fr_energy">    -43.60984029 </i>
    <i name="e_wo_entrp">    -43.60984029 </i>
    <i name="e_0_energy">    -43.60984029 </i>
   </energy>
  </scstep>
  <scstep>
   <time name="diag">    0.21    0.21</time>
   <time name="diis">    1.14    1.14</time>
   <time name="orth">    0.02    0.02</time>
   <time name="total">    1.54    1.55</time>
   <energy>
    <i name="e_fr_energy">    -43.60998004 </i>
    <i name="e_wo_entrp">    -43.60998004 </i>
    <i name="e_0_energy">    -43.60998004 </i>
   </energy>
  </scstep>
  <scstep>
   <time name="diag">    0.21    0.21</time>
   <time name="diis">    1.17    1.17</time>
   <time name="orth">    0.02    0.02</time>
   <time name="total">    1.57    1.57</time>
   <energy>
    <i name="e_fr_energy">    -43.60998980 </i>
    <i name="e_wo_entrp">    -43.60998980 </i>
    <i name="e_0_energy">    -43.60998980 </i>
   </energy>
  </scstep>
  <scstep>
   <time name="diag">    0.21    0.21</time>
   <time name="diis">    0.88    0.88</time>
   <time name="orth">    0.02    0.02</time>
   <time name="total">    1.19    1.19</time>
   <energy>
    <i name="alphaZ">     90.42577596 </i>
    <i name="ewald">  -1146.88905665 </i>
    <i name="hartreedc">   -542.95844084 </i>
    <i name="XCdc">    -70.38668803 </i>
    <i name="pawpsdc">    943.62936297 </i>
    <i name="pawaedc">   -792.01238703 </i>
    <i name="eentropy">      0.00000000 </i>
    <i name="bandstr">    -67.74406883 </i>
    <i name="atom">   1542.32552242 </i>
    <i name="e_fr_energy">    -43.60998002 </i>
    <i name="e_wo_entrp">    -43.60998002 </i>
    <i name="e_0_energy">    -43.60998002 </i>
   </energy>
  </scstep>
  <structure>
   <crystal>
    <varray name="basis" >
     <v>       3.19031573       0.00000000       0.00000000 </v>
     <v>      -1.59515786       2.76289447       0.00000000 </v>
     <v>       0.00000000       0.00000000      14.87900430 </v>
    </varray>
    <i name="volume">    131.15106795 </i>
    <varray name="rec_basis" >
     <v>       0.31344860       0.18096963       0.00000000 </v>
     <v>       0.00000000       0.36193927       0.00000000 </v>
     <v>       0.00000000       0.00000000       0.06720880 </v>
    </varray>
   </crystal>
   <varray name="positions" >
    <v>       0.33333300       0.66666700       0.25000000 </v>
    <v>       0.66666700       0.33333300       0.75000000 </v>
    <v>       0.33333300       0.66666700       0.85517400 </v>
    <v>       0.66666700       0.33333300       0.14482600 </v>
    <v>       0.66666600       0.33333300       0.35517400 </v>
    <v>       0.33333400       0.66666700       0.64482600 </v>
   </varray>
  </structure>
  <varray name="forces" >
   <v>       0.00000000      -0.00000000       0.00000000 </v>
   <v>       0.00000000       0.00000000       0.00000000 </v>
   <v>      -0.00000000      -0.00000000      -0.08371074 </v>
   <v>       0.00000000       0.00000000       0.08371074 </v>
   <v>       0.00000000      -0.00000000      -0.08371074 </v>
   <v>      -0.00000000       0.00000000       0.08371074 </v>
  </varray>
  <varray name="stress" >
   <v>      -4.57870331       0.00000000      -0.00000000 </v>
   <v>       0.00000000      -4.57870331       0.00000000 </v>
   <v>       0.00000000      -0.00000000     -16.08782729 </v>
  </varray>
  <energy>
   <i name="e_fr_energy">    -44.94126703 </i>
   <i name="e_wo_entrp">    -44.94126703 </i>
   <i name="e_0_energy">      0.00000000 </i>
  </energy>
  <time name="totalsc">   22.12   22.23</time>
  <eigenvalues>
   <array>
    <dimension dim="1">band</dimension>
    <dimension dim="2">kpoint</dimension>
    <dimension dim="3">spin</dimension>
    <field>eigene</field>
    <field>occ</field>
    <set>
     <set comment="spin 1">
      <set comment="kpoint 1">
       <r>  -10.9298    1.0000 </r>
       <r>  -10.9108    1.0000 </r>
       <r>   -9.7293    1.0000 </r>
       <r>   -9.6954    1.0000 </r>
       <r>   -2.5237    1.0000 </r>
       <r>   -2.3622    1.0000 </r>
       <r>    0.5193    1.0000 </r>
       <r>    0.5193    1.0000 </r>
       <r>    0.5199    1.0000 </r>
       <r>    0.5199    1.0000 </r>
       <r>    1.1059    1.0000 </r>
       <r>    1.6243    1.0000 </r>
       <r>    1.6243    1.0000 </r>
       <r>    1.6262    1.0000 </r>
       <r>    1.6262    1.0000 </r>
       <r>    1.6742    1.0000 </r>
       <r>    2.9224    1.0000 </r>
       <r>    3.2983    1.0000 </r>
       <r>    5.8728    0.0000 </r>
       <r>    5.8871    0.0000 </r>
       <r>    5.9374    0.0000 </r>
       <r>    6.0319    0.0000 </r>
      </set>
      <set comment="kpoint 2">
       <r>  -10.7155    1.0000 </r>
       <r>  -10.6969    1.0000 </r>
       <r>   -9.6257    1.0000 </r>
       <r>   -9.5942    1.0000 </r>
       <r>   -2.2779    1.0000 </r>
       <r>   -2.1190    1.0000 </r>
       <r>    0.0548    1.0000 </r>
       <r>    0.0576    1.0000 </r>
       <r>    0.4563    1.0000 </r>
       <r>    0.6724    1.0000 </r>
       <r>    0.7534    1.0000 </r>
       <r>    0.7546    1.0000 </r>
       <r>    1.2882    1.0000 </r>
       <r>    1.2908    1.0000 </r>
       <r>    1.9303    1.0000 </r>
       <r>    2.2142    1.0000 </r>
       <r>    2.8433    1.0000 </r>
       <r>    3.0853    1.0000 </r>
       <r>    5.5161    0.0000 </r>
       <r>    5.6415    0.0000 </r>
       <r>    5.7118    0.0000 </r>
       <r>    5.8264    0.0000 </r>
      </set>
      <set comment="kpoint 3">
       <r>  -10.1458    1.0000 </r>
       <r>  -10.1291    1.0000 </r>
       <r>   -9.3533    1.0000 </r>
       <r>   -9.3290    1.0000 </r>
       <r>   -1.8880    1.0000 </r>
       <r>   -1.7772    1.0000 </r>
       <r>   -0.6918    1.0000 </r>
       <r>   -0.6483    1.0000 </r>
       <r>   -0.4615    1.0000 </r>
       <r>   -0.3601    1.0000 </r>
       <r>    0.6528    1.0000 </r>
       <r>    0.6562    1.0000 </r>
       <r>    1.3394    1.0000 </r>
       <r>    1.3429    1.0000 </r>
       <r>    1.7038    1.0000 </r>
       <r>    1.9126    1.0000 </r>
       <r>    2.3697    1.0000 </r>
       <r>    2.4182    1.0000 </r>
       <r>    5.1192    0.0000 </r>
       <r>    5.4378    0.0000 </r>
       <r>    5.4475    0.0000 </r>
       <r>    5.4600    0.0000 </r>
      </set>
      <set comment="kpoint 4">
       <r>   -9.4683    1.0000 </r>
       <r>   -9.4564    1.0000 </r>
       <r>   -9.0398    1.0000 </r>
       <r>   -9.0256    1.0000 </r>
       <r>   -2.2856    1.0000 </r>
       <r>   -2.2509    1.0000 </r>
       <r>   -1.2978    1.0000 </r>
       <r>   -1.2548    1.0000 </r>
       <r>   -0.8467    1.0000 </r>
       <r>   -0.7617    1.0000 </r>
       <r>    0.1552    1.0000 </r>
       <r>    0.1592    1.0000 </r>
       <r>    1.3418    1.0000 </r>
       <r>    1.4494    1.0000 </r>
       <r>    1.9274    1.0000 </r>
       <r>    1.9360    1.0000 </r>
       <r>    2.1733    1.0000 </r>
       <r>    2.2240    1.0000 </r>
       <r>    5.2593    0.0000 </r>
       <r>    5.2685    0.0000 </r>
       <r>    5.4547    0.0000 </r>
       <r>    5.6359    0.0000 </r>
      </set>
      <set comment="kpoint 5">
       <r>   -9.1374    1.0000 </r>
       <r>   -9.1308    1.0000 </r>
       <r>   -8.8926    1.0000 </r>
       <r>   -8.8861    1.0000 </r>
       <r>   -2.6140    1.0000 </r>
       <r>   -2.5870    1.0000 </r>
       <r>   -1.6531    1.0000 </r>
       <r>   -1.6286    1.0000 </r>
       <r>   -0.9685    1.0000 </r>
       <r>   -0.8926    1.0000 </r>
       <r>   -0.0255    1.0000 </r>
       <r>   -0.0213    1.0000 </r>
       <r>    1.2464    1.0000 </r>
       <r>    1.2659    1.0000 </r>
       <r>    2.1528    1.0000 </r>
       <r>    2.1649    1.0000 </r>
       <r>    2.4769    1.0000 </r>
       <r>    2.4807    1.0000 </r>
       <r>    5.2842    0.0000 </r>
       <r>    5.2880    0.0000 </r>
       <r>    5.7746    0.0000 </r>
       <r>    5.8295    0.0000 </r>
      </set>
      <set comment="kpoint 6">
       <r>  -10.3221    1.0000 </r>
       <r>  -10.3047    1.0000 </r>
       <r>   -9.4363    1.0000 </r>
       <r>   -9.4096    1.0000 </r>
       <r>   -1.9212    1.0000 </r>
       <r>   -1.7814    1.0000 </r>
       <r>   -0.5139    1.0000 </r>
       <r>   -0.5013    1.0000 </r>
       <r>   -0.0654    1.0000 </r>
       <r>    0.0766    1.0000 </r>
       <r>    0.4636    1.0000 </r>
       <r>    0.4898    1.0000 </r>
       <r>    1.0926    1.0000 </r>
       <r>    1.0944    1.0000 </r>
       <r>    2.0955    1.0000 </r>
       <r>    2.2979    1.0000 </r>
       <r>    2.5520    1.0000 </r>
       <r>    2.6276    1.0000 </r>
       <r>    5.0631    0.0000 </r>
       <r>    5.3279    0.0000 </r>
       <r>    5.5282    0.0000 </r>
       <r>    5.5630    0.0000 </r>
      </set>
      <set comment="kpoint 7">
       <r>   -9.6868    1.0000 </r>
       <r>   -9.6728    1.0000 </r>
       <r>   -9.1335    1.0000 </r>
       <r>   -9.1153    1.0000 </r>
       <r>   -1.9398    1.0000 </r>
       <r>   -1.8868    1.0000 </r>
       <r>   -0.9514    1.0000 </r>
       <r>   -0.9202    1.0000 </r>
       <r>   -0.7086    1.0000 </r>
       <r>   -0.6351    1.0000 </r>
       <r>   -0.0669    1.0000 </r>
       <r>    0.0078    1.0000 </r>
       <r>    1.1900    1.0000 </r>
       <r>    1.1959    1.0000 </r>
       <r>    1.7870    1.0000 </r>
       <r>    1.8734    1.0000 </r>
       <r>    2.3021    1.0000 </r>
       <r>    2.3119    1.0000 </r>
       <r>    4.9960    0.0000 </r>
       <r>    5.2122    0.0000 </r>
       <r>    5.5914    0.0000 </r>
       <r>    5.9090    0.0000 </r>
      </set>
      <set comment="kpoint 8">
       <r>   -9.1532    1.0000 </r>
       <r>   -9.1455    1.0000 </r>
       <r>   -8.8846    1.0000 </r>
       <r>   -8.8762    1.0000 </r>
       <r>   -2.3267    1.0000 </r>
       <r>   -2.2998    1.0000 </r>
       <r>   -1.7025    1.0000 </r>
       <r>   -1.6933    1.0000 </r>
       <r>   -0.8381    1.0000 </r>
       <r>   -0.7675    1.0000 </r>
       <r>   -0.0675    1.0000 </r>
       <r>   -0.0251    1.0000 </r>
       <r>    1.1997    1.0000 </r>
       <r>    1.2160    1.0000 </r>
       <r>    1.3282    1.0000 </r>
       <r>    1.3665    1.0000 </r>
       <r>    2.6245    1.0000 </r>
       <r>    2.6428    1.0000 </r>
       <r>    5.2706    0.0000 </r>
       <r>    5.3348    0.0000 </r>
       <r>    5.7786    0.0000 </r>
       <r>    5.8539    0.0000 </r>
      </set>
      <set comment="kpoint 9">
       <r>   -9.1686    1.0000 </r>
       <r>   -9.1600    1.0000 </r>
       <r>   -8.8764    1.0000 </r>
       <r>   -8.8665    1.0000 </r>
       <r>   -1.9674    1.0000 </r>
       <r>   -1.9389    1.0000 </r>
       <r>   -1.7539    1.0000 </r>
       <r>   -1.7428    1.0000 </r>
       <r>   -0.4883    1.0000 </r>
       <r>   -0.4638    1.0000 </r>
       <r>   -0.1394    1.0000 </r>
       <r>   -0.0512    1.0000 </r>
       <r>    0.2145    1.0000 </r>
       <r>    0.2371    1.0000 </r>
       <r>    1.4761    1.0000 </r>
       <r>    1.4868    1.0000 </r>
       <r>    2.6004    1.0000 </r>
       <r>    2.6102    1.0000 </r>
       <r>    5.1856    0.0000 </r>
       <r>    5.3138    0.0000 </r>
       <r>    5.9252    0.0000 </r>
       <r>    6.0915    0.0000 </r>
      </set>
      <set comment="kpoint 10">
       <r>   -8.9310    1.0000 </r>
       <r>   -8.9279    1.0000 </r>
       <r>   -8.7538    1.0000 </r>
       <r>   -8.7507    1.0000 </r>
       <r>   -2.1381    1.0000 </r>
       <r>   -2.1274    1.0000 </r>
       <r>   -1.7920    1.0000 </r>
       <r>   -1.7758    1.0000 </r>
       <r>   -0.7782    1.0000 </r>
       <r>   -0.7410    1.0000 </r>
       <r>   -0.1072    1.0000 </r>
       <r>   -0.0863    1.0000 </r>
       <r>    0.1067    1.0000 </r>
       <r>    0.1577    1.0000 </r>
       <r>    1.0756    1.0000 </r>
       <r>    1.1155    1.0000 </r>
       <r>    2.9620    1.0000 </r>
       <r>    2.9832    1.0000 </r>
       <r>    4.9236    0.0000 </r>
       <r>    4.9325    0.0000 </r>
       <r>    6.1512    0.0000 </r>
       <r>    6.3334    0.0000 </r>
      </set>
      <set comment="kpoint 11">
       <r>  -10.9205    1.0000 </r>
       <r>  -10.9205    1.0000 </r>
       <r>   -9.7122    1.0000 </r>
       <r>   -9.7122    1.0000 </r>
       <r>   -2.4457    1.0000 </r>
       <r>   -2.4457    1.0000 </r>
       <r>    0.5196    1.0000 </r>
       <r>    0.5196    1.0000 </r>
       <r>    0.5196    1.0000 </r>
       <r>    0.5196    1.0000 </r>
       <r>    1.3626    1.0000 </r>
       <r>    1.3626    1.0000 </r>
       <r>    1.6252    1.0000 </r>
       <r>    1.6253    1.0000 </r>
       <r>    1.6253    1.0000 </r>
       <r>    1.6253    1.0000 </r>
       <r>    3.1410    1.0000 </r>
       <r>    3.1410    1.0000 </r>
       <r>    5.8773    0.0000 </r>
       <r>    5.8837    0.0000 </r>
       <r>    6.0033    0.0000 </r>
       <r>    6.0907    0.0000 </r>
      </set>
      <set comment="kpoint 12">
       <r>  -10.7063    1.0000 </r>
       <r>  -10.7063    1.0000 </r>
       <r>   -9.6098    1.0000 </r>
       <r>   -9.6098    1.0000 </r>
       <r>   -2.2015    1.0000 </r>
       <r>   -2.2015    1.0000 </r>
       <r>    0.0559    1.0000 </r>
       <r>    0.0559    1.0000 </r>
       <r>    0.5710    1.0000 </r>
       <r>    0.5710    1.0000 </r>
       <r>    0.7540    1.0000 </r>
       <r>    0.7540    1.0000 </r>
       <r>    1.2895    1.0000 </r>
       <r>    1.2895    1.0000 </r>
       <r>    2.0425    1.0000 </r>
       <r>    2.0425    1.0000 </r>
       <r>    2.9903    1.0000 </r>
       <r>    2.9903    1.0000 </r>
       <r>    5.5911    0.0000 </r>
       <r>    5.6175    0.0000 </r>
       <r>    5.7303    0.0000 </r>
       <r>    5.8247    0.0000 </r>
      </set>
      <set comment="kpoint 13">
       <r>  -10.1376    1.0000 </r>
       <r>  -10.1376    1.0000 </r>
       <r>   -9.3410    1.0000 </r>
       <r>   -9.3410    1.0000 </r>
       <r>   -1.8344    1.0000 </r>
       <r>   -1.8344    1.0000 </r>
       <r>   -0.6757    1.0000 </r>
       <r>   -0.6757    1.0000 </r>
       <r>   -0.4029    1.0000 </r>
       <r>   -0.4028    1.0000 </r>
       <r>    0.6545    1.0000 </r>
       <r>    0.6545    1.0000 </r>
       <r>    1.3412    1.0000 </r>
       <r>    1.3412    1.0000 </r>
       <r>    1.8004    1.0000 </r>
       <r>    1.8004    1.0000 </r>
       <r>    2.3994    1.0000 </r>
       <r>    2.3994    1.0000 </r>
       <r>    5.2599    0.0000 </r>
       <r>    5.2607    0.0000 </r>
       <r>    5.4466    0.0000 </r>
       <r>    5.4474    0.0000 </r>
      </set>
      <set comment="kpoint 14">
       <r>   -9.4625    1.0000 </r>
       <r>   -9.4625    1.0000 </r>
       <r>   -9.0326    1.0000 </r>
       <r>   -9.0326    1.0000 </r>
       <r>   -2.2684    1.0000 </r>
       <r>   -2.2684    1.0000 </r>
       <r>   -1.2782    1.0000 </r>
       <r>   -1.2782    1.0000 </r>
       <r>   -0.8022    1.0000 </r>
       <r>   -0.8022    1.0000 </r>
       <r>    0.1572    1.0000 </r>
       <r>    0.1572    1.0000 </r>
       <r>    1.3935    1.0000 </r>
       <r>    1.3935    1.0000 </r>
       <r>    1.9317    1.0000 </r>
       <r>    1.9317    1.0000 </r>
       <r>    2.2006    1.0000 </r>
       <r>    2.2006    1.0000 </r>
       <r>    5.2638    0.0000 </r>
       <r>    5.2638    0.0000 </r>
       <r>    5.5374    0.0000 </r>
       <r>    5.5376    0.0000 </r>
      </set>
      <set comment="kpoint 15">
       <r>   -9.1342    1.0000 </r>
       <r>   -9.1342    1.0000 </r>
       <r>   -8.8893    1.0000 </r>
       <r>   -8.8893    1.0000 </r>
       <r>   -2.6006    1.0000 </r>
       <r>   -2.6006    1.0000 </r>
       <r>   -1.6417    1.0000 </r>
       <r>   -1.6417    1.0000 </r>
       <r>   -0.9296    1.0000 </r>
       <r>   -0.9296    1.0000 </r>
       <r>   -0.0234    1.0000 </r>
       <r>   -0.0234    1.0000 </r>
       <r>    1.2560    1.0000 </r>
       <r>    1.2560    1.0000 </r>
       <r>    2.1588    1.0000 </r>
       <r>    2.1588    1.0000 </r>
       <r>    2.4789    1.0000 </r>
       <r>    2.4789    1.0000 </r>
       <r>    5.2861    0.0000 </r>
       <r>    5.2861    0.0000 </r>
       <r>    5.8018    0.0000 </r>
       <r>    5.8028    0.0000 </r>
      </set>
      <set comment="kpoint 16">
       <r>  -10.3135    1.0000 </r>
       <r>  -10.3135    1.0000 </r>
       <r>   -9.4228    1.0000 </r>
       <r>   -9.4228    1.0000 </r>
       <r>   -1.8542    1.0000 </r>
       <r>   -1.8542    1.0000 </r>
       <r>   -0.5094    1.0000 </r>
       <r>   -0.5094    1.0000 </r>
       <r>    0.0124    1.0000 </r>
       <r>    0.0124    1.0000 </r>
       <r>    0.4756    1.0000 </r>
       <r>    0.4756    1.0000 </r>
       <r>    1.0935    1.0000 </r>
       <r>    1.0935    1.0000 </r>
       <r>    2.1814    1.0000 </r>
       <r>    2.1814    1.0000 </r>
       <r>    2.6015    1.0000 </r>
       <r>    2.6015    1.0000 </r>
       <r>    5.1831    0.0000 </r>
       <r>    5.1856    0.0000 </r>
       <r>    5.5493    0.0000 </r>
       <r>    5.6426    0.0000 </r>
      </set>
      <set comment="kpoint 17">
       <r>   -9.6799    1.0000 </r>
       <r>   -9.6799    1.0000 </r>
       <r>   -9.1243    1.0000 </r>
       <r>   -9.1242    1.0000 </r>
       <r>   -1.9137    1.0000 </r>
       <r>   -1.9137    1.0000 </r>
       <r>   -0.9376    1.0000 </r>
       <r>   -0.9376    1.0000 </r>
       <r>   -0.6718    1.0000 </r>
       <r>   -0.6718    1.0000 </r>
       <r>   -0.0269    1.0000 </r>
       <r>   -0.0269    1.0000 </r>
       <r>    1.1928    1.0000 </r>
       <r>    1.1928    1.0000 </r>
       <r>    1.8282    1.0000 </r>
       <r>    1.8282    1.0000 </r>
       <r>    2.3077    1.0000 </r>
       <r>    2.3077    1.0000 </r>
       <r>    5.1026    0.0000 </r>
       <r>    5.1028    0.0000 </r>
       <r>    5.5654    0.0000 </r>
       <r>    5.5873    0.0000 </r>
      </set>
      <set comment="kpoint 18">
       <r>   -9.1494    1.0000 </r>
       <r>   -9.1494    1.0000 </r>
       <r>   -8.8804    1.0000 </r>
       <r>   -8.8804    1.0000 </r>
       <r>   -2.3134    1.0000 </r>
       <r>   -2.3133    1.0000 </r>
       <r>   -1.6981    1.0000 </r>
       <r>   -1.6981    1.0000 </r>
       <r>   -0.8036    1.0000 </r>
       <r>   -0.8035    1.0000 </r>
       <r>   -0.0449    1.0000 </r>
       <r>   -0.0449    1.0000 </r>
       <r>    1.2071    1.0000 </r>
       <r>    1.2072    1.0000 </r>
       <r>    1.3473    1.0000 </r>
       <r>    1.3473    1.0000 </r>
       <r>    2.6339    1.0000 </r>
       <r>    2.6339    1.0000 </r>
       <r>    5.3030    0.0000 </r>
       <r>    5.3030    0.0000 </r>
       <r>    5.8120    0.0000 </r>
       <r>    5.8133    0.0000 </r>
      </set>
      <set comment="kpoint 19">
       <r>   -9.1644    1.0000 </r>
       <r>   -9.1644    1.0000 </r>
       <r>   -8.8713    1.0000 </r>
       <r>   -8.8713    1.0000 </r>
       <r>   -1.9534    1.0000 </r>
       <r>   -1.9534    1.0000 </r>
       <r>   -1.7482    1.0000 </r>
       <r>   -1.7482    1.0000 </r>
       <r>   -0.4798    1.0000 </r>
       <r>   -0.4798    1.0000 </r>
       <r>   -0.0911    1.0000 </r>
       <r>   -0.0911    1.0000 </r>
       <r>    0.2259    1.0000 </r>
       <r>    0.2259    1.0000 </r>
       <r>    1.4804    1.0000 </r>
       <r>    1.4804    1.0000 </r>
       <r>    2.6054    1.0000 </r>
       <r>    2.6054    1.0000 </r>
       <r>    5.2494    0.0000 </r>
       <r>    5.2497    0.0000 </r>
       <r>    5.9105    0.0000 </r>
       <r>    6.1467    0.0000 </r>
      </set>
      <set comment="kpoint 20">
       <r>   -8.9294    1.0000 </r>
       <r>   -8.9294    1.0000 </r>
       <r>   -8.7522    1.0000 </r>
       <r>   -8.7522    1.0000 </r>
       <r>   -2.1328    1.0000 </r>
       <r>   -2.1328    1.0000 </r>
       <r>   -1.7837    1.0000 </r>
       <r>   -1.7837    1.0000 </r>
       <r>   -0.7606    1.0000 </r>
       <r>   -0.7606    1.0000 </r>
       <r>   -0.0995    1.0000 </r>
       <r>   -0.0995    1.0000 </r>
       <r>    0.1370    1.0000 </r>
       <r>    0.1370    1.0000 </r>
       <r>    1.0940    1.0000 </r>
       <r>    1.0940    1.0000 </r>
       <r>    2.9726    1.0000 </r>
       <r>    2.9726    1.0000 </r>
       <r>    4.9282    0.0000 </r>
       <r>    4.9282    0.0000 </r>
       <r>    6.2295    0.0000 </r>
       <r>    6.2551    0.0000 </r>
      </set>
     </set>
    </set>
   </array>
  </eigenvalues>
  <separator name="orbital magnetization" >
   <v name="MAGDIPOLOUT">      0.00000000      0.00000000      0.00000000</v>
  </separator>
  <dos>
   <i name="efermi">      3.30992375 </i>
   <total>
    <array>
     <dimension dim="1">gridpoints</dimension>
     <dimension dim="2">spin</dimension>
     <field>energy</field>
     <field>total</field>
     <field>integrated</field>
     <set>
      <set comment="spin 1">
       <r>   -12.9298     0.0000     0.0000 </r>
       <r>   -12.8590     0.0000     0.0000 </r>
       <r>   -12.7881     0.0000     0.0000 </r>
       <r>   -12.7172     0.0000     0.0000 </r>
       <r>   -12.6463     0.0000     0.0000 </r>
       <r>   -12.5754     0.0000     0.0000 </r>
       <r>   -12.5046     0.0000     0.0000 </r>
       <r>   -12.4337     0.0000     0.0000 </r>
       <r>   -12.3628     0.0000     0.0000 </r>
       <r>   -12.2919     0.0000     0.0000 </r>
       <r>   -12.2211     0.0000     0.0000 </r>
       <r>   -12.1502     0.0000     0.0000 </r>
       <r>   -12.0793     0.0000     0.0000 </r>
       <r>   -12.0084     0.0000     0.0000 </r>
       <r>   -11.9376     0.0000     0.0000 </r>
       <r>   -11.8667     0.0000     0.0000 </r>
       <r>   -11.7958     0.0000     0.0000 </r>
       <r>   -11.7249     0.0000     0.0000 </r>
       <r>   -11.6540     0.0000     0.0000 </r>
       <r>   -11.5832     0.0000     0.0000 </r>
       <r>   -11.5123     0.0000     0.0000 </r>
       <r>   -11.4414     0.0000     0.0000 </r>
       <r>   -11.3705     0.0000     0.0000 </r>
       <r>   -11.2997     0.0000     0.0000 </r>
       <r>   -11.2288     0.0000     0.0000 </r>
       <r>   -11.1579     0.0000     0.0000 </r>
       <r>   -11.0870     0.0000     0.0000 </r>
       <r>   -11.0161     0.0000     0.0000 </r>
       <r>   -10.9453     0.0000     0.0000 </r>
       <r>   -10.8744     0.3761     0.0088 </r>
       <r>   -10.8035     0.9558     0.0560 </r>
       <r>   -10.7326     1.5354     0.1443 </r>
       <r>   -10.6618     0.9959     0.2309 </r>
       <r>   -10.5909     1.0616     0.3038 </r>
       <r>   -10.5200     1.1272     0.3814 </r>
       <r>   -10.4491     1.1929     0.4636 </r>
       <r>   -10.3783     1.2586     0.5505 </r>
       <r>   -10.3074     1.3195     0.6420 </r>
       <r>   -10.2365     1.3315     0.7360 </r>
       <r>   -10.1656     1.3434     0.8308 </r>
       <r>   -10.0947     1.3812     0.9269 </r>
       <r>   -10.0239     1.4362     1.0268 </r>
       <r>    -9.9530     1.4911     1.1305 </r>
       <r>    -9.8821     1.5460     1.2382 </r>
       <r>    -9.8112     1.6010     1.3497 </r>
       <r>    -9.7404     1.6559     1.4651 </r>
       <r>    -9.6695     3.3925     1.6202 </r>
       <r>    -9.5986     4.3353     1.9350 </r>
       <r>    -9.5277     4.6018     2.2443 </r>
       <r>    -9.4568     5.1006     2.5879 </r>
       <r>    -9.3860     5.5649     2.9679 </r>
       <r>    -9.3151     5.9919     3.3758 </r>
       <r>    -9.2442     6.5556     3.8204 </r>
       <r>    -9.1733     7.1194     4.3051 </r>
       <r>    -9.1025     8.4776     5.0942 </r>
       <r>    -9.0316     8.3414     5.6897 </r>
       <r>    -8.9607     8.6869     6.2929 </r>
       <r>    -8.8898    10.8823     6.9353 </r>
       <r>    -8.8190     6.1886     7.6259 </r>
       <r>    -8.7481     0.0000     8.0000 </r>
       <r>    -8.6772     0.0000     8.0000 </r>
       <r>    -8.6063     0.0000     8.0000 </r>
       <r>    -8.5354     0.0000     8.0000 </r>
       <r>    -8.4646     0.0000     8.0000 </r>
       <r>    -8.3937     0.0000     8.0000 </r>
       <r>    -8.3228     0.0000     8.0000 </r>
       <r>    -8.2519     0.0000     8.0000 </r>
       <r>    -8.1811     0.0000     8.0000 </r>
       <r>    -8.1102     0.0000     8.0000 </r>
       <r>    -8.0393     0.0000     8.0000 </r>
       <r>    -7.9684     0.0000     8.0000 </r>
       <r>    -7.8975     0.0000     8.0000 </r>
       <r>    -7.8267     0.0000     8.0000 </r>
       <r>    -7.7558     0.0000     8.0000 </r>
       <r>    -7.6849     0.0000     8.0000 </r>
       <r>    -7.6140     0.0000     8.0000 </r>
       <r>    -7.5432     0.0000     8.0000 </r>
       <r>    -7.4723     0.0000     8.0000 </r>
       <r>    -7.4014     0.0000     8.0000 </r>
       <r>    -7.3305     0.0000     8.0000 </r>
       <r>    -7.2597     0.0000     8.0000 </r>
       <r>    -7.1888     0.0000     8.0000 </r>
       <r>    -7.1179     0.0000     8.0000 </r>
       <r>    -7.0470     0.0000     8.0000 </r>
       <r>    -6.9761     0.0000     8.0000 </r>
       <r>    -6.9053     0.0000     8.0000 </r>
       <r>    -6.8344     0.0000     8.0000 </r>
       <r>    -6.7635     0.0000     8.0000 </r>
       <r>    -6.6926     0.0000     8.0000 </r>
       <r>    -6.6218     0.0000     8.0000 </r>
       <r>    -6.5509     0.0000     8.0000 </r>
       <r>    -6.4800     0.0000     8.0000 </r>
       <r>    -6.4091     0.0000     8.0000 </r>
       <r>    -6.3382     0.0000     8.0000 </r>
       <r>    -6.2674     0.0000     8.0000 </r>
       <r>    -6.1965     0.0000     8.0000 </r>
       <r>    -6.1256     0.0000     8.0000 </r>
       <r>    -6.0547     0.0000     8.0000 </r>
       <r>    -5.9839     0.0000     8.0000 </r>
       <r>    -5.9130     0.0000     8.0000 </r>
       <r>    -5.8421     0.0000     8.0000 </r>
       <r>    -5.7712     0.0000     8.0000 </r>
       <r>    -5.7004     0.0000     8.0000 </r>
       <r>    -5.6295     0.0000     8.0000 </r>
       <r>    -5.5586     0.0000     8.0000 </r>
       <r>    -5.4877     0.0000     8.0000 </r>
       <r>    -5.4168     0.0000     8.0000 </r>
       <r>    -5.3460     0.0000     8.0000 </r>
       <r>    -5.2751     0.0000     8.0000 </r>
       <r>    -5.2042     0.0000     8.0000 </r>
       <r>    -5.1333     0.0000     8.0000 </r>
       <r>    -5.0625     0.0000     8.0000 </r>
       <r>    -4.9916     0.0000     8.0000 </r>
       <r>    -4.9207     0.0000     8.0000 </r>
       <r>    -4.8498     0.0000     8.0000 </r>
       <r>    -4.7789     0.0000     8.0000 </r>
       <r>    -4.7081     0.0000     8.0000 </r>
       <r>    -4.6372     0.0000     8.0000 </r>
       <r>    -4.5663     0.0000     8.0000 </r>
       <r>    -4.4954     0.0000     8.0000 </r>
       <r>    -4.4246     0.0000     8.0000 </r>
       <r>    -4.3537     0.0000     8.0000 </r>
       <r>    -4.2828     0.0000     8.0000 </r>
       <r>    -4.2119     0.0000     8.0000 </r>
       <r>    -4.1411     0.0000     8.0000 </r>
       <r>    -4.0702     0.0000     8.0000 </r>
       <r>    -3.9993     0.0000     8.0000 </r>
       <r>    -3.9284     0.0000     8.0000 </r>
       <r>    -3.8575     0.0000     8.0000 </r>
       <r>    -3.7867     0.0000     8.0000 </r>
       <r>    -3.7158     0.0000     8.0000 </r>
       <r>    -3.6449     0.0000     8.0000 </r>
       <r>    -3.5740     0.0000     8.0000 </r>
       <r>    -3.5032     0.0000     8.0000 </r>
       <r>    -3.4323     0.0000     8.0000 </r>
       <r>    -3.3614     0.0000     8.0000 </r>
       <r>    -3.2905     0.0000     8.0000 </r>
       <r>    -3.2196     0.0000     8.0000 </r>
       <r>    -3.1488     0.0000     8.0000 </r>
       <r>    -3.0779     0.0000     8.0000 </r>
       <r>    -3.0070     0.0000     8.0000 </r>
       <r>    -2.9361     0.0000     8.0000 </r>
       <r>    -2.8653     0.0000     8.0000 </r>
       <r>    -2.7944     0.0000     8.0000 </r>
       <r>    -2.7235     0.0000     8.0000 </r>
       <r>    -2.6526     0.0000     8.0000 </r>
       <r>    -2.5818     0.2333     8.0026 </r>
       <r>    -2.5109     1.1159     8.0503 </r>
       <r>    -2.4400     2.1319     8.1642 </r>
       <r>    -2.3691     3.3423     8.3571 </r>
       <r>    -2.2982     5.2043     8.6499 </r>
       <r>    -2.2274     5.5689     9.0293 </r>
       <r>    -2.1565     6.0127     9.4402 </r>
       <r>    -2.0856     7.4514    10.0161 </r>
       <r>    -2.0147     6.3384    10.5047 </r>
       <r>    -1.9439     8.1653    10.9406 </r>
       <r>    -1.8730     7.6998    11.6661 </r>
       <r>    -1.8021     1.7095    11.9803 </r>
       <r>    -1.7312     8.7956    12.6011 </r>
       <r>    -1.6603     4.3404    13.0619 </r>
       <r>    -1.5895     2.6659    13.2739 </r>
       <r>    -1.5186     2.4384    13.4548 </r>
       <r>    -1.4477     2.2112    13.6195 </r>
       <r>    -1.3768     1.9841    13.7682 </r>
       <r>    -1.3060     1.7573    13.9008 </r>
       <r>    -1.2351     1.6709    14.0206 </r>
       <r>    -1.1642     1.6784    14.1392 </r>
       <r>    -1.0933     1.6859    14.2585 </r>
       <r>    -1.0225     1.6935    14.3782 </r>
       <r>    -0.9516     1.8295    14.4993 </r>
       <r>    -0.8807     5.5591    14.7439 </r>
       <r>    -0.8098    11.0462    15.3242 </r>
       <r>    -0.7389    10.4396    16.2134 </r>
       <r>    -0.6681     9.8406    16.9161 </r>
       <r>    -0.5972     7.9647    17.5729 </r>
       <r>    -0.5263     4.7580    18.0239 </r>
       <r>    -0.4554     2.6160    18.2645 </r>
       <r>    -0.3846     2.3577    18.4402 </r>
       <r>    -0.3137     2.1898    18.6011 </r>
       <r>    -0.2428     2.0296    18.7506 </r>
       <r>    -0.1719     1.8698    18.8888 </r>
       <r>    -0.1010    17.1762    19.1829 </r>
       <r>    -0.0302    20.5953    20.6007 </r>
       <r>     0.0407     7.4022    21.3387 </r>
       <r>     0.1116     6.3264    21.7875 </r>
       <r>     0.1825     5.6970    22.2686 </r>
       <r>     0.2533     3.7713    22.5822 </r>
       <r>     0.3242     3.5852    22.8429 </r>
       <r>     0.3951     3.3991    23.0904 </r>
       <r>     0.4660     3.5495    23.3264 </r>
       <r>     0.5368     5.2367    23.6354 </r>
       <r>     0.6077     5.0367    24.0002 </r>
       <r>     0.6786     4.1241    24.3429 </r>
       <r>     0.7495     2.6026    24.5812 </r>
       <r>     0.8204     1.7896    24.7131 </r>
       <r>     0.8912     1.7469    24.8384 </r>
       <r>     0.9621     1.7109    24.9609 </r>
       <r>     1.0330     1.6816    25.0811 </r>
       <r>     1.1039     4.9050    25.2614 </r>
       <r>     1.1747    11.1111    25.8015 </r>
       <r>     1.2456    17.7871    26.8960 </r>
       <r>     1.3165    13.1818    28.0358 </r>
       <r>     1.3874     4.8013    28.6454 </r>
       <r>     1.4583     3.1283    28.9068 </r>
       <r>     1.5291     2.9488    29.1199 </r>
       <r>     1.6000     2.8702    29.3261 </r>
       <r>     1.6709     3.0353    29.5322 </r>
       <r>     1.7418     3.7104    29.7634 </r>
       <r>     1.8126     6.7103    30.1146 </r>
       <r>     1.8835     8.5340    30.6787 </r>
       <r>     1.9544     4.8884    31.1475 </r>
       <r>     2.0253     4.3710    31.4805 </r>
       <r>     2.0962     3.0358    31.7480 </r>
       <r>     2.1670     1.5789    31.9072 </r>
       <r>     2.2379     2.6934    32.0342 </r>
       <r>     2.3088     7.7924    32.3479 </r>
       <r>     2.3797     7.7916    32.9324 </r>
       <r>     2.4505     7.1791    33.4601 </r>
       <r>     2.5214     6.6316    33.9505 </r>
       <r>     2.5923     6.1305    34.4008 </r>
       <r>     2.6632     4.2841    34.7782 </r>
       <r>     2.7340     3.7602    35.0633 </r>
       <r>     2.8049     3.2357    35.3112 </r>
       <r>     2.8758     2.9709    35.5267 </r>
       <r>     2.9467     2.3826    35.7206 </r>
       <r>     3.0176     0.9667    35.8856 </r>
       <r>     3.0884     0.8013    35.9501 </r>
       <r>     3.1593     0.2999    35.9861 </r>
       <r>     3.2302     0.0720    35.9984 </r>
       <r>     3.3011     0.0000    36.0000 </r>
       <r>     3.3719     0.0000    36.0000 </r>
       <r>     3.4428     0.0000    36.0000 </r>
       <r>     3.5137     0.0000    36.0000 </r>
       <r>     3.5846     0.0000    36.0000 </r>
       <r>     3.6555     0.0000    36.0000 </r>
       <r>     3.7263     0.0000    36.0000 </r>
       <r>     3.7972     0.0000    36.0000 </r>
       <r>     3.8681     0.0000    36.0000 </r>
       <r>     3.9390     0.0000    36.0000 </r>
       <r>     4.0098     0.0000    36.0000 </r>
       <r>     4.0807     0.0000    36.0000 </r>
       <r>     4.1516     0.0000    36.0000 </r>
       <r>     4.2225     0.0000    36.0000 </r>
       <r>     4.2933     0.0000    36.0000 </r>
       <r>     4.3642     0.0000    36.0000 </r>
       <r>     4.4351     0.0000    36.0000 </r>
       <r>     4.5060     0.0000    36.0000 </r>
       <r>     4.5769     0.0000    36.0000 </r>
       <r>     4.6477     0.0000    36.0000 </r>
       <r>     4.7186     0.0000    36.0000 </r>
       <r>     4.7895     0.0000    36.0000 </r>
       <r>     4.8604     0.0000    36.0000 </r>
       <r>     4.9312     8.2466    36.0573 </r>
       <r>     5.0021     1.7947    36.1656 </r>
       <r>     5.0730     5.3005    36.4112 </r>
       <r>     5.1439     8.9478    36.9138 </r>
       <r>     5.2148    13.0294    37.6985 </r>
       <r>     5.2856    24.9664    38.8697 </r>
       <r>     5.3565     2.1713    39.4621 </r>
       <r>     5.4274     1.5891    39.5921 </r>
       <r>     5.4983     7.4968    39.8715 </r>
       <r>     5.5691    11.2278    40.5708 </r>
       <r>     5.6400     8.1431    41.1829 </r>
       <r>     5.7109     8.0429    41.7568 </r>
       <r>     5.7818    10.4490    42.3178 </r>
       <r>     5.8526     4.8790    42.9178 </r>
       <r>     5.9235     3.5025    43.2020 </r>
       <r>     5.9944     2.7720    43.4234 </r>
       <r>     6.0653     2.1643    43.5978 </r>
       <r>     6.1362     1.7858    43.7357 </r>
       <r>     6.2070     1.6181    43.8670 </r>
       <r>     6.2779     1.1340    43.9580 </r>
       <r>     6.3488     0.0000    44.0000 </r>
       <r>     6.4197     0.0000    44.0000 </r>
       <r>     6.4905     0.0000    44.0000 </r>
       <r>     6.5614     0.0000    44.0000 </r>
       <r>     6.6323     0.0000    44.0000 </r>
       <r>     6.7032     0.0000    44.0000 </r>
       <r>     6.7741     0.0000    44.0000 </r>
       <r>     6.8449     0.0000    44.0000 </r>
       <r>     6.9158     0.0000    44.0000 </r>
       <r>     6.9867     0.0000    44.0000 </r>
       <r>     7.0576     0.0000    44.0000 </r>
       <r>     7.1284     0.0000    44.0000 </r>
       <r>     7.1993     0.0000    44.0000 </r>
       <r>     7.2702     0.0000    44.0000 </r>
       <r>     7.3411     0.0000    44.0000 </r>
       <r>     7.4119     0.0000    44.0000 </r>
       <r>     7.4828     0.0000    44.0000 </r>
       <r>     7.5537     0.0000    44.0000 </r>
       <r>     7.6246     0.0000    44.0000 </r>
       <r>     7.6955     0.0000    44.0000 </r>
       <r>     7.7663     0.0000    44.0000 </r>
       <r>     7.8372     0.0000    44.0000 </r>
       <r>     7.9081     0.0000    44.0000 </r>
       <r>     7.9790     0.0000    44.0000 </r>
       <r>     8.0498     0.0000    44.0000 </r>
       <r>     8.1207     0.0000    44.0000 </r>
       <r>     8.1916     0.0000    44.0000 </r>
       <r>     8.2625     0.0000    44.0000 </r>
       <r>     8.3334     0.0000    44.0000 </r>
      </set>
     </set>
    </array>
   </total>
  </dos>
 </calculation>
 <structure name="finalpos" >
  <crystal>
   <varray name="basis" >
    <v>       3.19031573       0.00000000       0.00000000 </v>
    <v>      -1.59515786       2.76289447       0.00000000 </v>
    <v>       0.00000000       0.00000000      14.87900430 </v>
   </varray>
   <i name="volume">    131.15106795 </i>
   <varray name="rec_basis" >
    <v>       0.31344860       0.18096963       0.00000000 </v>
    <v>       0.00000000       0.36193927       0.00000000 </v>
    <v>       0.00000000       0.00000000       0.06720880 </v>
   </varray>
  </crystal>
  <varray name="positions" >
   <v>       0.33333300       0.66666700       0.25000000 </v>
   <v>       0.66666700       0.33333300       0.75000000 </v>
   <v>       0.33333300       0.66666700       0.85517400 </v>
   <v>       0.66666700       0.33333300       0.14482600 </v>
   <v>       0.66666600       0.33333300       0.35517400 </v>
   <v>       0.33333400       0.66666700       0.64482600 </v>
  </varray>
 </structure>
</modeling>
