   3   3   0   0
  0.9072772E+02  0.3190316E-09  0.3190316E-09  0.3087900E-08  0.5000000E-15
  1.000000000000000E-004
  CAR 
 unknown system                          
      5.78518715    -19.77663052  301     -3.74724069      1.00000000
    -19.777  0.0000E+00  0.0000E+00
    -19.691  0.0000E+00  0.0000E+00
    -19.606  0.0000E+00  0.0000E+00
    -19.521  0.0000E+00  0.0000E+00
    -19.436  0.0000E+00  0.0000E+00
    -19.351  0.0000E+00  0.0000E+00
    -19.265  0.0000E+00  0.0000E+00
    -19.180  0.0000E+00  0.0000E+00
    -19.095  0.0000E+00  0.0000E+00
    -19.010  0.0000E+00  0.0000E+00
    -18.925  0.0000E+00  0.0000E+00
    -18.839  0.0000E+00  0.0000E+00
    -18.754  0.0000E+00  0.0000E+00
    -18.669  0.0000E+00  0.0000E+00
    -18.584  0.0000E+00  0.0000E+00
    -18.499  0.0000E+00  0.0000E+00
    -18.413  0.0000E+00  0.0000E+00
    -18.328  0.0000E+00  0.0000E+00
    -18.243  0.0000E+00  0.0000E+00
    -18.158  0.0000E+00  0.0000E+00
    -18.073  0.0000E+00  0.0000E+00
    -17.987  0.0000E+00  0.0000E+00
    -17.902  0.0000E+00  0.0000E+00
    -17.817  0.0000E+00  0.0000E+00
    -17.732  0.5505E-01  0.1237E-02
    -17.646  0.1594E+00  0.1037E-01
    -17.561  0.2638E+00  0.2840E-01
    -17.476  0.3681E+00  0.5532E-01
    -17.391  0.4725E+00  0.9113E-01
    -17.306  0.5768E+00  0.1358E+00
    -17.220  0.6812E+00  0.1894E+00
    -17.135  0.7855E+00  0.2519E+00
    -17.050  0.8899E+00  0.3233E+00
    -16.965  0.7929E+00  0.3979E+00
    -16.880  0.8563E+00  0.4681E+00
    -16.794  0.9198E+00  0.5438E+00
    -16.709  0.9833E+00  0.6249E+00
    -16.624  0.1047E+01  0.7114E+00
    -16.539  0.1280E+01  0.8059E+00
    -16.454  0.1807E+01  0.9374E+00
    -16.368  0.2334E+01  0.1114E+01
    -16.283  0.2860E+01  0.1335E+01
    -16.198  0.2963E+01  0.1601E+01
    -16.113  0.3338E+01  0.1869E+01
    -16.028  0.3714E+01  0.2170E+01
    -15.942  0.2535E+01  0.2904E+01
    -15.857  0.2848E+01  0.3134E+01
    -15.772  0.3160E+01  0.3390E+01
    -15.687  0.0000E+00  0.4000E+01
    -15.602  0.0000E+00  0.4000E+01
    -15.516  0.0000E+00  0.4000E+01
    -15.431  0.0000E+00  0.4000E+01
    -15.346  0.0000E+00  0.4000E+01
    -15.261  0.0000E+00  0.4000E+01
    -15.176  0.0000E+00  0.4000E+01
    -15.090  0.0000E+00  0.4000E+01
    -15.005  0.0000E+00  0.4000E+01
    -14.920  0.0000E+00  0.4000E+01
    -14.835  0.0000E+00  0.4000E+01
    -14.749  0.0000E+00  0.4000E+01
    -14.664  0.0000E+00  0.4000E+01
    -14.579  0.0000E+00  0.4000E+01
    -14.494  0.0000E+00  0.4000E+01
    -14.409  0.0000E+00  0.4000E+01
    -14.323  0.0000E+00  0.4000E+01
    -14.238  0.0000E+00  0.4000E+01
    -14.153  0.0000E+00  0.4000E+01
    -14.068  0.0000E+00  0.4000E+01
    -13.983  0.0000E+00  0.4000E+01
    -13.897  0.0000E+00  0.4000E+01
    -13.812  0.0000E+00  0.4000E+01
    -13.727  0.0000E+00  0.4000E+01
    -13.642  0.0000E+00  0.4000E+01
    -13.557  0.0000E+00  0.4000E+01
    -13.471  0.0000E+00  0.4000E+01
    -13.386  0.0000E+00  0.4000E+01
    -13.301  0.0000E+00  0.4000E+01
    -13.216  0.0000E+00  0.4000E+01
    -13.131  0.0000E+00  0.4000E+01
    -13.045  0.0000E+00  0.4000E+01
    -12.960  0.0000E+00  0.4000E+01
    -12.875  0.0000E+00  0.4000E+01
    -12.790  0.0000E+00  0.4000E+01
    -12.705  0.0000E+00  0.4000E+01
    -12.619  0.0000E+00  0.4000E+01
    -12.534  0.0000E+00  0.4000E+01
    -12.449  0.0000E+00  0.4000E+01
    -12.364  0.0000E+00  0.4000E+01
    -12.278  0.0000E+00  0.4000E+01
    -12.193  0.0000E+00  0.4000E+01
    -12.108  0.0000E+00  0.4000E+01
    -12.023  0.0000E+00  0.4000E+01
    -11.938  0.0000E+00  0.4000E+01
    -11.852  0.0000E+00  0.4000E+01
    -11.767  0.0000E+00  0.4000E+01
    -11.682  0.0000E+00  0.4000E+01
    -11.597  0.0000E+00  0.4000E+01
    -11.512  0.0000E+00  0.4000E+01
    -11.426  0.0000E+00  0.4000E+01
    -11.341  0.0000E+00  0.4000E+01
    -11.256  0.0000E+00  0.4000E+01
    -11.171  0.0000E+00  0.4000E+01
    -11.086  0.0000E+00  0.4000E+01
    -11.000  0.0000E+00  0.4000E+01
    -10.915  0.0000E+00  0.4000E+01
    -10.830  0.0000E+00  0.4000E+01
    -10.745  0.0000E+00  0.4000E+01
    -10.660  0.0000E+00  0.4000E+01
    -10.574  0.0000E+00  0.4000E+01
    -10.489  0.0000E+00  0.4000E+01
    -10.404  0.0000E+00  0.4000E+01
    -10.319  0.0000E+00  0.4000E+01
    -10.234  0.0000E+00  0.4000E+01
    -10.148  0.0000E+00  0.4000E+01
    -10.063  0.0000E+00  0.4000E+01
     -9.978  0.0000E+00  0.4000E+01
     -9.893  0.0000E+00  0.4000E+01
     -9.808  0.0000E+00  0.4000E+01
     -9.722  0.0000E+00  0.4000E+01
     -9.637  0.0000E+00  0.4000E+01
     -9.552  0.0000E+00  0.4000E+01
     -9.467  0.0000E+00  0.4000E+01
     -9.381  0.3473E+00  0.4013E+01
     -9.296  0.7561E+00  0.4060E+01
     -9.211  0.1335E+01  0.4149E+01
     -9.126  0.1915E+01  0.4287E+01
     -9.041  0.2495E+01  0.4475E+01
     -8.955  0.3075E+01  0.4712E+01
     -8.870  0.3655E+01  0.4999E+01
     -8.785  0.3710E+01  0.5442E+01
     -8.700  0.6868E+01  0.5893E+01
     -8.615  0.0000E+00  0.6000E+01
     -8.529  0.3310E+01  0.6494E+01
     -8.444  0.1422E+01  0.6650E+01
     -8.359  0.1355E+01  0.6768E+01
     -8.274  0.1288E+01  0.6881E+01
     -8.189  0.1221E+01  0.6988E+01
     -8.103  0.1154E+01  0.7089E+01
     -8.018  0.1086E+01  0.7184E+01
     -7.933  0.1019E+01  0.7274E+01
     -7.848  0.9520E+00  0.7358E+01
     -7.763  0.1105E+01  0.7439E+01
     -7.677  0.1890E+01  0.7566E+01
     -7.592  0.2675E+01  0.7761E+01
     -7.507  0.3396E+01  0.8021E+01
     -7.422  0.4203E+01  0.8345E+01
     -7.337  0.5010E+01  0.8737E+01
     -7.251  0.1283E+01  0.9411E+01
     -7.166  0.1164E+01  0.9515E+01
     -7.081  0.1045E+01  0.9609E+01
     -6.996  0.9261E+00  0.9693E+01
     -6.911  0.6797E+01  0.1020E+02
     -6.825  0.2701E+01  0.1051E+02
     -6.740  0.2445E+01  0.1073E+02
     -6.655  0.2188E+01  0.1093E+02
     -6.570  0.2730E+01  0.1127E+02
     -6.484  0.2576E+01  0.1150E+02
     -6.399  0.2422E+01  0.1171E+02
     -6.314  0.2293E+01  0.1191E+02
     -6.229  0.2258E+01  0.1210E+02
     -6.144  0.2278E+01  0.1230E+02
     -6.058  0.2256E+01  0.1249E+02
     -5.973  0.2235E+01  0.1268E+02
     -5.888  0.2213E+01  0.1287E+02
     -5.803  0.2191E+01  0.1306E+02
     -5.718  0.2169E+01  0.1324E+02
     -5.632  0.2147E+01  0.1343E+02
     -5.547  0.1291E+01  0.1359E+02
     -5.462  0.2163E+01  0.1374E+02
     -5.377  0.1383E+01  0.1390E+02
     -5.292  0.2745E+01  0.1424E+02
     -5.206  0.3673E+01  0.1449E+02
     -5.121  0.6843E+01  0.1494E+02
     -5.036  0.2663E+01  0.1555E+02
     -4.951  0.1995E+01  0.1575E+02
     -4.866  0.1326E+01  0.1589E+02
     -4.780  0.6574E+00  0.1597E+02
     -4.695  0.0000E+00  0.1600E+02
     -4.610  0.0000E+00  0.1600E+02
     -4.525  0.0000E+00  0.1600E+02
     -4.440  0.5699E+01  0.1608E+02
     -4.354  0.9727E+01  0.1680E+02
     -4.269  0.7357E+01  0.1752E+02
     -4.184  0.6534E+00  0.1786E+02
     -4.099  0.5251E+00  0.1791E+02
     -4.014  0.3968E+00  0.1795E+02
     -3.928  0.2684E+00  0.1798E+02
     -3.843  0.1401E+00  0.1799E+02
     -3.758  0.1179E-01  0.1800E+02
     -3.673  0.0000E+00  0.1800E+02
     -3.587  0.0000E+00  0.1800E+02
     -3.502  0.0000E+00  0.1800E+02
     -3.417  0.0000E+00  0.1800E+02
     -3.332  0.0000E+00  0.1800E+02
     -3.247  0.0000E+00  0.1800E+02
     -3.161  0.0000E+00  0.1800E+02
     -3.076  0.0000E+00  0.1800E+02
     -2.991  0.0000E+00  0.1800E+02
     -2.906  0.0000E+00  0.1800E+02
     -2.821  0.0000E+00  0.1800E+02
     -2.735  0.0000E+00  0.1800E+02
     -2.650  0.0000E+00  0.1800E+02
     -2.565  0.0000E+00  0.1800E+02
     -2.480  0.0000E+00  0.1800E+02
     -2.395  0.0000E+00  0.1800E+02
     -2.309  0.0000E+00  0.1800E+02
     -2.224  0.0000E+00  0.1800E+02
     -2.139  0.0000E+00  0.1800E+02
     -2.054  0.0000E+00  0.1800E+02
     -1.969  0.0000E+00  0.1800E+02
     -1.883  0.0000E+00  0.1800E+02
     -1.798  0.0000E+00  0.1800E+02
     -1.713  0.0000E+00  0.1800E+02
     -1.628  0.0000E+00  0.1800E+02
     -1.543  0.1154E+01  0.1968E+02
     -1.457  0.9797E+00  0.1977E+02
     -1.372  0.4387E+01  0.1997E+02
     -1.287  0.4342E+01  0.2034E+02
     -1.202  0.4297E+01  0.2071E+02
     -1.117  0.4252E+01  0.2108E+02
     -1.031  0.6340E+01  0.2145E+02
     -0.946  0.0000E+00  0.2200E+02
     -0.861  0.1077E+02  0.2204E+02
     -0.776  0.3928E+01  0.2267E+02
     -0.690  0.1768E+01  0.2287E+02
     -0.605  0.2386E+01  0.2319E+02
     -0.520  0.2254E+01  0.2339E+02
     -0.435  0.2121E+01  0.2357E+02
     -0.350  0.1989E+01  0.2375E+02
     -0.264  0.1856E+01  0.2391E+02
     -0.179  0.1724E+01  0.2407E+02
     -0.094  0.1592E+01  0.2421E+02
     -0.009  0.1459E+01  0.2434E+02
      0.076  0.1355E+01  0.2445E+02
      0.162  0.1352E+01  0.2457E+02
      0.247  0.1565E+01  0.2469E+02
      0.332  0.1778E+01  0.2483E+02
      0.417  0.1991E+01  0.2500E+02
      0.502  0.2202E+01  0.2517E+02
      0.588  0.2290E+01  0.2537E+02
      0.673  0.2377E+01  0.2556E+02
      0.758  0.2465E+01  0.2577E+02
      0.843  0.0000E+00  0.2600E+02
      0.928  0.0000E+00  0.2600E+02
      1.014  0.0000E+00  0.2600E+02
      1.099  0.0000E+00  0.2600E+02
      1.184  0.0000E+00  0.2600E+02
      1.269  0.0000E+00  0.2600E+02
      1.354  0.0000E+00  0.2600E+02
      1.440  0.0000E+00  0.2600E+02
      1.525  0.0000E+00  0.2600E+02
      1.610  0.0000E+00  0.2600E+02
      1.695  0.1574E-01  0.2600E+02
      1.781  0.6115E-01  0.2600E+02
      1.866  0.1066E+00  0.2601E+02
      1.951  0.1520E+00  0.2602E+02
      2.036  0.1974E+00  0.2604E+02
      2.121  0.2428E+00  0.2606E+02
      2.207  0.2882E+00  0.2608E+02
      2.292  0.3336E+00  0.2610E+02
      2.377  0.3791E+00  0.2613E+02
      2.462  0.5284E+00  0.2617E+02
      2.547  0.8304E+00  0.2623E+02
      2.633  0.1132E+01  0.2631E+02
      2.718  0.1434E+01  0.2642E+02
      2.803  0.1736E+01  0.2656E+02
      2.888  0.2022E+01  0.2672E+02
      2.973  0.1882E+01  0.2689E+02
      3.059  0.1743E+01  0.2704E+02
      3.144  0.1603E+01  0.2718E+02
      3.229  0.1464E+01  0.2731E+02
      3.314  0.1324E+01  0.2743E+02
      3.399  0.1184E+01  0.2754E+02
      3.485  0.1045E+01  0.2763E+02
      3.570  0.9053E+00  0.2772E+02
      3.655  0.7657E+00  0.2779E+02
      3.740  0.6261E+00  0.2785E+02
      3.825  0.0000E+00  0.2800E+02
      3.911  0.0000E+00  0.2800E+02
      3.996  0.0000E+00  0.2800E+02
      4.081  0.0000E+00  0.2800E+02
      4.166  0.0000E+00  0.2800E+02
      4.251  0.0000E+00  0.2800E+02
      4.337  0.0000E+00  0.2800E+02
      4.422  0.0000E+00  0.2800E+02
      4.507  0.0000E+00  0.2800E+02
      4.592  0.0000E+00  0.2800E+02
      4.678  0.0000E+00  0.2800E+02
      4.763  0.0000E+00  0.2800E+02
      4.848  0.0000E+00  0.2800E+02
      4.933  0.0000E+00  0.2800E+02
      5.018  0.0000E+00  0.2800E+02
      5.104  0.0000E+00  0.2800E+02
      5.189  0.0000E+00  0.2800E+02
      5.274  0.0000E+00  0.2800E+02
      5.359  0.0000E+00  0.2800E+02
      5.444  0.0000E+00  0.2800E+02
      5.530  0.0000E+00  0.2800E+02
      5.615  0.0000E+00  0.2800E+02
      5.700  0.0000E+00  0.2800E+02
      5.785  0.0000E+00  0.2800E+02
