    3    3    1    1
  0.9072772E+02  0.3190316E-09  0.3190316E-09  0.3087900E-08  0.5000000E-15
  1.000000000000000E-004
  CAR 
 unknown system                          
     18      4     14
 
  0.0000000E+00  0.0000000E+00  0.0000000E+00  0.6250000E-01
    1      -17.776631   1.000000
    2      -16.570040   1.000000
    3       -9.295667   1.000000
    4       -6.332429   1.000000
    5       -6.332424   1.000000
    6       -5.479103   1.000000
    7       -5.225691   1.000000
    8       -5.225659   1.000000
    9       -3.750063   1.000000
   10       -0.979694   0.000000
   11       -0.979663   0.000000
   12       -0.758836   0.000000
   13       -0.758822   0.000000
   14        1.665770   0.000000
 
  0.2500000E+00 -0.4163336E-16  0.0000000E+00  0.3750000E+00
    1      -16.994093   1.000000
    2      -16.198639   1.000000
    3       -8.684887   1.000000
    4       -7.524071   1.000000
    5       -7.261931   1.000000
    6       -6.196789   1.000000
    7       -5.511978   1.000000
    8       -5.051875   1.000000
    9       -4.455751   1.000000
   10       -1.584375   0.000000
   11       -1.408576   0.000000
   12       -0.864479   0.000000
   13       -0.007683   0.000000
   14        2.851981   0.000000
 
  0.5000000E+00 -0.8326673E-16  0.0000000E+00  0.1875000E+00
    1      -15.991226   1.000000
    2      -15.746580   1.000000
    3       -9.453898   1.000000
    4       -8.494611   1.000000
    5       -7.784631   1.000000
    6       -6.874810   1.000000
    7       -5.599494   1.000000
    8       -4.696576   1.000000
    9       -4.371406   1.000000
   10       -1.564972   0.000000
   11       -1.046164   0.000000
   12        0.151529   0.000000
   13        0.500963   0.000000
   14        2.427631   0.000000
 
  0.2500000E+00  0.2500000E+00  0.0000000E+00  0.3750000E+00
    1      -16.021409   1.000000
    2      -15.728739   1.000000
    3       -8.805962   1.000000
    4       -8.600514   1.000000
    5       -7.331870   1.000000
    6       -6.948675   1.000000
    7       -6.627795   1.000000
    8       -5.375426   1.000000
    9       -4.245378   1.000000
   10       -1.595418   0.000000
   11       -0.986871   0.000000
   12       -0.675224   0.000000
   13        0.800052   0.000000
   14        3.785187   0.000000
