       N       E                     dE             d eps       ncg     rms          rms(c)
DAV:   1     0.136427518603E+03    0.13643E+03   -0.50130E+03   112   0.775E+02
DAV:   2    -0.625129632188E+01   -0.14268E+03   -0.13745E+03   196   0.166E+02
DAV:   3    -0.231111091693E+02   -0.16860E+02   -0.16693E+02   154   0.729E+01
DAV:   4    -0.234385005867E+02   -0.32739E+00   -0.32545E+00   150   0.129E+01
DAV:   5    -0.234462410311E+02   -0.77404E-02   -0.77386E-02   162   0.183E+00    0.685E+00
RMM:   6    -0.222829637175E+02    0.11633E+01   -0.52999E+00   116   0.122E+01    0.254E+00
RMM:   7    -0.219139725760E+02    0.36899E+00   -0.52978E-01   116   0.331E+00    0.146E+00
RMM:   8    -0.218561189666E+02    0.57854E-01   -0.22914E-01   121   0.247E+00    0.351E-01
RMM:   9    -0.218512905287E+02    0.48284E-02   -0.91855E-03   133   0.613E-01    0.102E-01
RMM:  10    -0.218504093873E+02    0.88114E-03   -0.16108E-03   131   0.217E-01    0.462E-02
RMM:  11    -0.218503262884E+02    0.83099E-04   -0.16666E-03   123   0.194E-01    0.566E-02
RMM:  12    -0.218501577148E+02    0.16857E-03   -0.55550E-04   121   0.133E-01    0.193E-02
RMM:  13    -0.218504925916E+02   -0.33488E-03   -0.17904E-04   115   0.744E-02    0.203E-02
RMM:  14    -0.218505654323E+02   -0.72841E-04   -0.29895E-05   101   0.286E-02    0.559E-03
RMM:  15    -0.218506958165E+02   -0.13038E-03   -0.14223E-05    73   0.191E-02    0.288E-03
RMM:  16    -0.218507380710E+02   -0.42254E-04   -0.30276E-06    71   0.928E-03    0.177E-03
RMM:  17    -0.218507677163E+02   -0.29645E-04   -0.22939E-06    51   0.676E-03    0.101E-03
RMM:  18    -0.218507736010E+02   -0.58847E-05   -0.37781E-07    31   0.393E-03
   1 F= -.22441572E+02 E0= -.22441572E+02  d E =0.000000E+00
