 vasp.5.4.4.18Apr17-6-g9f103f2a35 (build Jun 30 2017 11:15:00) complex          
  
 executed on    STALLO_VASP_5.4.4 date 2019.11.08  12:20:45
 running on    4 total cores
 distrk:  each k-point on    4 cores,    1 groups
 distr:  one band on NCORES_PER_BAND=   2 cores,    2 groups


--------------------------------------------------------------------------------------------------------


 INCAR:
 POTCAR:   PAW_PBE Mo 08Apr2002                   
 POTCAR:    PAW_PBE S 17Jan2003                   
 POTCAR:   PAW_PBE Mo 08Apr2002                   
   VRHFIN =Mo: 4p5s4d                                                           
   LEXCH  = PE                                                                  
   EATOM  =   217.5180 eV,   15.9871 Ry                                         
                                                                                
   TITEL  = PAW_PBE Mo 08Apr2002                                                
   LULTRA =        F    use ultrasoft PP ?                                      
   IUNSCR =        1    unscreen: 0-lin 1-nonlin 2-no                           
   RPACOR =    2.200    partial core radius                                     
   POMASS =   95.940; ZVAL   =    6.000    mass and valenz                      
   RCORE  =    2.750    outmost cutoff radius                                   
   RWIGS  =    2.750; RWIGS  =    1.455    wigner-seitz radius (au A)           
   ENMAX  =  224.584; ENMIN  =  168.438 eV                                      
   RCLOC  =    2.111    cutoff for local pot                                    
   LCOR   =        T    correct aug charges                                     
   LPAW   =        T    paw PP                                                  
   EAUG   =  345.278                                                            
   DEXC   =    -.088                                                            
   RMAX   =    3.077    core radius for proj-oper                               
   RAUG   =    1.300    factor for augmentation sphere                          
   RDEP   =    2.815    radius for radial grids                                 
   QCUT   =   -4.063; QGAM   =    8.126    optimization parameters              
                                                                                
   Description                                                                  
     l     E      TYP  RCUT    TYP  RCUT                                        
     2   .000     23  2.500                                                     
     2   .000     23  2.500                                                     
     0   .000     23  2.600                                                     
     0  1.000     23  2.600                                                     
     1   .400     23  2.750                                                     
     1  2.000     23  2.750                                                     
     3   .000      7   .000                                                     
  local pseudopotential read in
  partial core-charges read in
  atomic valenz-charges read in
  non local Contribution for L=           2  read in
    real space projection operators read in
  non local Contribution for L=           2  read in
    real space projection operators read in
  non local Contribution for L=           0  read in
    real space projection operators read in
  non local Contribution for L=           0  read in
    real space projection operators read in
  non local Contribution for L=           1  read in
    real space projection operators read in
  non local Contribution for L=           1  read in
    real space projection operators read in
    PAW grid and wavefunctions read in
 
   number of l-projection  operators is LMAX  =           6
   number of lm-projection operators is LMMAX =          18
 
 POTCAR:    PAW_PBE S 17Jan2003                   
   VRHFIN =S : s2p4                                                             
   LEXCH  = PE                                                                  
   EATOM  =   276.8230 eV,   20.3459 Ry                                         
                                                                                
   TITEL  = PAW_PBE S 17Jan2003                                                 
   LULTRA =        F    use ultrasoft PP ?                                      
   IUNSCR =        1    unscreen: 0-lin 1-nonlin 2-no                           
   RPACOR =    1.500    partial core radius                                     
   POMASS =   32.066; ZVAL   =    6.000    mass and valenz                      
   RCORE  =    1.900    outmost cutoff radius                                   
   RWIGS  =    2.200; RWIGS  =    1.164    wigner-seitz radius (au A)           
   ENMAX  =  280.000; ENMIN  =  194.016 eV                                      
   ICORE  =        2    local potential                                         
   LCOR   =        T    correct aug charges                                     
   LPAW   =        T    paw PP                                                  
   EAUG   =  335.092                                                            
   DEXC   =     .000                                                            
   RMAX   =    2.867    core radius for proj-oper                               
   RAUG   =    1.300    factor for augmentation sphere                          
   RDEP   =    1.954    radius for radial grids                                 
   QCUT   =   -4.360; QGAM   =    8.721    optimization parameters              
                                                                                
   Description                                                                  
     l     E      TYP  RCUT    TYP  RCUT                                        
     0   .000     23  1.900                                                     
     0   .000     23  1.900                                                     
     1   .000     23  1.900                                                     
     1   .000     23  1.900                                                     
     2   .000     23  1.900                                                     
  local pseudopotential read in
  partial core-charges read in
  atomic valenz-charges read in
  non local Contribution for L=           0  read in
    real space projection operators read in
  non local Contribution for L=           0  read in
    real space projection operators read in
  non local Contribution for L=           1  read in
    real space projection operators read in
  non local Contribution for L=           1  read in
    real space projection operators read in
    PAW grid and wavefunctions read in
 
   number of l-projection  operators is LMAX  =           4
   number of lm-projection operators is LMMAX =           8
 
 PAW_PBE Mo 08Apr2002                   :
 energy of atom  1       EATOM= -217.5180
 kinetic energy error for atom=    0.0023 (will be added to EATOM!!)
  PAW_PBE S 17Jan2003                   :
 energy of atom  2       EATOM= -276.8230
 kinetic energy error for atom=    0.0033 (will be added to EATOM!!)
 
 
 POSCAR: MoS2_mp-2815_computed                   
  positions in cartesian coordinates
  velocities in cartesian coordinates
  No initial velocities read in
 exchange correlation table for  LEXCH =        8
   RHO(1)=    0.500       N(1)  =     2000
   RHO(2)=  100.500       N(2)  =     4000
 


--------------------------------------------------------------------------------------------------------


 ion  position               nearest neighbor table
   1  0.333  0.667  0.120-   3 2.42   2 2.42   2 2.42   3 2.42   3 2.42   2 2.42
   2  0.667  0.333  0.070-   1 2.42   1 2.42   1 2.42
   3  0.667  0.333  0.171-   1 2.42   1 2.42   1 2.42
 
  LATTYP: Found a hexagonal cell.
 ALAT       =     3.1903157300
 C/A-ratio  =     9.6789806757
  
  Lattice vectors:
  
 A1 = (   3.1903157300,   0.0000000000,   0.0000000000)
 A2 = (  -1.5951578650,   2.7628944683,   0.0000000000)
 A3 = (   0.0000000000,   0.0000000000,  30.8790043000)


Analysis of symmetry for initial positions (statically):
=====================================================================
 Subroutine PRICEL returns:
 Original cell was already a primitive cell.
 

 Routine SETGRP: Setting up the symmetry group for a 
 hexagonal supercell.


 Subroutine GETGRP returns: Found 12 space group operations
 (whereof  6 operations were pure point group operations)
 out of a pool of 24 trial point group operations.


The static configuration has the point symmetry C_3v.
 The point group associated with its full space group is D_3h.


Analysis of symmetry for dynamics (positions and initial velocities):
=====================================================================
 Subroutine PRICEL returns:
 Original cell was already a primitive cell.
 

 Routine SETGRP: Setting up the symmetry group for a 
 hexagonal supercell.


 Subroutine GETGRP returns: Found 12 space group operations
 (whereof  6 operations were pure point group operations)
 out of a pool of 24 trial point group operations.


The dynamic configuration has the point symmetry C_3v.
 The point group associated with its full space group is D_3h.


 Subroutine INISYM returns: Found 12 space group operations
 (whereof  6 operations are pure point group operations),
 and found     1 'primitive' translations

 
 
 KPOINTS: k-density: 2.0                          

Automatic generation of k-mesh.
Space group operators:
 irot       det(A)        alpha          n_x          n_y          n_z        tau_x        tau_y        tau_z
    1     1.000000     0.000000     1.000000     0.000000     0.000000     0.000000     0.000000     0.000000
    2     1.000000   120.000000     0.000000     0.000000    -1.000000     0.000000     0.000000     0.000000
    3     1.000000   120.000000     0.000000     0.000000     1.000000     0.000000     0.000000     0.000000
    4    -1.000000   180.000000     1.000000    -0.000000     0.000000     0.000000     0.000000     0.000000
    5    -1.000000   180.000000     0.500000    -0.866025     0.000000     0.000000     0.000000     0.000000
    6    -1.000000   180.000000    -0.500000    -0.866025     0.000000     0.000000     0.000000     0.000000
    7    -1.000000    60.000000     0.000000     0.000000    -1.000000     0.000000     0.000000     0.240924
    8    -1.000000   179.999999     0.000000     0.000000     1.000000     0.000000     0.000000     0.240924
    9    -1.000000    60.000000     0.000000     0.000000     1.000000     0.000000     0.000001     0.240924
   10     1.000000   180.000000     0.866025    -0.500000     0.000000     0.000000     0.000000     0.240924
   11     1.000000   180.000000     0.000000     1.000000     0.000000     0.000000     0.000000     0.240924
   12     1.000000   180.000000     0.866025     0.500000     0.000000    -0.000000     0.000001     0.240924
 
 Subroutine IBZKPT returns following result:
 ===========================================
 
 Found      4 irreducible k-points:
 
 Following reciprocal coordinates:
            Coordinates               Weight
  0.000000  0.000000  0.000000      1.000000
  0.250000 -0.000000  0.000000      6.000000
  0.500000 -0.000000  0.000000      3.000000
  0.250000  0.250000  0.000000      6.000000
 
 Following cartesian coordinates:
            Coordinates               Weight
  0.000000  0.000000  0.000000      1.000000
  0.078362  0.045242  0.000000      6.000000
  0.156724  0.090485  0.000000      3.000000
  0.078362  0.135727  0.000000      6.000000
 
 TETIRR: Found     10 inequivalent tetrahedra from       96


--------------------------------------------------------------------------------------------------------




 Dimension of arrays:
   k-points           NKPTS =      4   k-points in BZ     NKDIM =      4   number of bands    NBANDS=     14
   number of dos      NEDOS =    301   number of ions     NIONS =      3
   non local maximal  LDIM  =      6   non local SUM 2l+1 LMDIM =     18
   total plane-waves  NPLWV =  51840
   max r-space proj   IRMAX =      1   max aug-charges    IRDMAX=  12426
   dimension x,y,z NGX =    18 NGY =   18 NGZ =  160
   dimension x,y,z NGXF=    36 NGYF=   36 NGZF=  320
   support grid    NGXF=    36 NGYF=   36 NGZF=  320
   ions per type =               1   2
   NGX,Y,Z   is equivalent  to a cutoff of   9.38,  9.38,  8.61 a.u.
   NGXF,Y,Z  is equivalent  to a cutoff of  18.76, 18.76, 17.23 a.u.

 SYSTEM =  unknown system                          
 POSCAR =  MoS2_mp-2815_computed                   

 Startparameter for this run:
   NWRITE =      2    write-flag & timer
   PREC   = normal    normal or accurate (medium, high low for compatibility)
   ISTART =      0    job   : 0-new  1-cont  2-samecut
   ICHARG =      2    charge: 1-file 2-atom 10-const
   ISPIN  =      1    spin polarized calculation?
   LNONCOLLINEAR =      F non collinear calculations
   LSORBIT =      F    spin-orbit coupling
   INIWAV =      1    electr: 0-lowe 1-rand  2-diag
   LASPH  =      F    aspherical Exc in radial PAW
   METAGGA=      F    non-selfconsistent MetaGGA calc.

 Electronic Relaxation 1
   ENCUT  =  450.0 eV  33.07 Ry    5.75 a.u.   5.52  5.52 53.41*2*pi/ulx,y,z
   ENINI  =  450.0     initial cutoff
   ENAUG  =  345.3 eV  augmentation charge cutoff
   NELM   =     60;   NELMIN=  4; NELMDL=  0     # of ELM steps 
   EDIFF  = 0.1E-04   stopping-criterion for ELM
   LREAL  =      F    real-space projection
   NLSPLINE    = F    spline interpolate recip. space projectors
   LCOMPAT=      F    compatible to vasp.4.4
   GGA_COMPAT  = T    GGA compatible to vasp.4.4-vasp.4.6
   LMAXPAW     = -100 max onsite density
   LMAXMIX     =    2 max onsite mixed and CHGCAR
   VOSKOWN=      0    Vosko Wilk Nusair interpolation
   ROPT   =    0.00000   0.00000
 Ionic relaxation
   EDIFFG = 0.1E-03   stopping-criterion for IOM
   NSW    =      0    number of steps for IOM
   NBLOCK =      1;   KBLOCK =      1    inner block; outer block 
   IBRION =     -1    ionic relax: 0-MD 1-quasi-New 2-CG
   NFREE  =      0    steps in history (QN), initial steepest desc. (CG)
   ISIF   =      2    stress and relaxation
   IWAVPR =     10    prediction:  0-non 1-charg 2-wave 3-comb
   ISYM   =      2    0-nonsym 1-usesym 2-fastsym
   LCORR  =      T    Harris-Foulkes like correction to forces

   POTIM  = 0.5000    time-step for ionic-motion
   TEIN   =    0.0    initial temperature
   TEBEG  =    0.0;   TEEND  =   0.0 temperature during run
   SMASS  =  -3.00    Nose mass-parameter (am)
   estimated Nose-frequenzy (Omega)   =  0.10E-29 period in steps =****** mass=  -0.233E-27a.u.
   SCALEE = 1.0000    scale energy and forces
   NPACO  =    256;   APACO  = 16.0  distance and # of slots for P.C.
   PSTRESS=    0.0 pullay stress

  Mass of Ions in am
   POMASS =  95.94 32.07
  Ionic Valenz
   ZVAL   =   6.00  6.00
  Atomic Wigner-Seitz radii
   RWIGS  =  -1.00 -1.00
  virtual crystal weights 
   VCA    =   1.00  1.00
   NELECT =      18.0000    total number of electrons
   NUPDOWN=      -1.0000    fix difference up-down

 DOS related values:
   EMIN   =  10.00;   EMAX   =-10.00  energy-range for DOS
   EFERMI =   0.00
   ISMEAR =    -5;   SIGMA  =   0.20  broadening in eV -4-tet -1-fermi 0-gaus

 Electronic relaxation 2 (details)
   IALGO  =     68    algorithm
   LDIAG  =      T    sub-space diagonalisation (order eigenvalues)
   LSUBROT=      F    optimize rotation matrix (better conditioning)
   TURBO    =      0    0=normal 1=particle mesh
   IRESTART =      0    0=no restart 2=restart with 2 vectors
   NREBOOT  =      0    no. of reboots
   NMIN     =      0    reboot dimension
   EREF     =   0.00    reference energy to select bands
   IMIX   =      4    mixing-type and parameters
     AMIX     =   0.40;   BMIX     =  1.00
     AMIX_MAG =   1.60;   BMIX_MAG =  1.00
     AMIN     =   0.10
     WC   =   100.;   INIMIX=   1;  MIXPRE=   1;  MAXMIX= -45

 Intra band minimization:
   WEIMIN = 0.0000     energy-eigenvalue tresh-hold
   EBREAK =  0.18E-06  absolut break condition
   DEPER  =   0.30     relativ break condition  

   TIME   =   0.40     timestep for ELM

  volume/ion in A,a.u.               =      90.73       612.26
  Fermi-wavevector in a.u.,A,eV,Ry     =   0.662031  1.251058  5.963237  0.438286
  Thomas-Fermi vector in A             =   1.734975
 
 Write flags
   LWAVE        =      F    write WAVECAR
   LDOWNSAMPLE  =      F    k-point downsampling of WAVECAR
   LCHARG       =      T    write CHGCAR
   LVTOT        =      F    write LOCPOT, total local potential
   LVHAR        =      F    write LOCPOT, Hartree potential only
   LELF         =      F    write electronic localiz. function (ELF)
   LORBIT       =      0    0 simple, 1 ext, 2 COOP (PROOUT), +10 PAW based schemes


 Dipole corrections
   LMONO  =      F    monopole corrections only (constant potential shift)
   LDIPOL =      F    correct potential (dipole corrections)
   IDIPOL =      0    1-x, 2-y, 3-z, 4-all directions 
   EPSILON=  1.0000000 bulk dielectric constant

 Exchange correlation treatment:
   GGA     =    --    GGA type
   LEXCH   =     8    internal setting for exchange type
   VOSKOWN=      0    Vosko Wilk Nusair interpolation
   LHFCALC =     F    Hartree Fock is set to
   LHFONE  =     F    Hartree Fock one center treatment
   AEXX    =    0.0000 exact exchange contribution

 Linear response parameters
   LEPSILON=     F    determine dielectric tensor
   LRPA    =     F    only Hartree local field effects (RPA)
   LNABLA  =     F    use nabla operator in PAW spheres
   LVEL    =     F    velocity operator in full k-point grid
   LINTERFAST=   F  fast interpolation
   KINTER  =     0    interpolate to denser k-point grid
   CSHIFT  =0.1000    complex shift for real part using Kramers Kronig
   OMEGAMAX=  -1.0    maximum frequency
   DEG_THRESHOLD= 0.2000000E-02 threshold for treating states as degnerate
   RTIME   =   -0.100 relaxation time in fs
  (WPLASMAI=    0.000 imaginary part of plasma frequency in eV, 0.658/RTIME)
   DFIELD  = 0.0000000 0.0000000 0.0000000 field for delta impulse in time
 
 Orbital magnetization related:
   ORBITALMAG=     F  switch on orbital magnetization
   LCHIMAG   =     F  perturbation theory with respect to B field
   DQ        =  0.001000  dq finite difference perturbation B field
   LLRAUG    =     F  two centre corrections for induced B field



--------------------------------------------------------------------------------------------------------


 Static calculation
 charge density and potential will be updated during run
 non-spin polarized calculation
 RMM-DIIS sequential band-by-band and
  variant of blocked Davidson during initial phase
 perform sub-space diagonalisation
    before iterative eigenvector-optimisation
 modified Broyden-mixing scheme, WC =      100.0
 initial mixing is a Kerker type mixing with AMIX =  0.4000 and BMIX =      1.0000
 Hartree-type preconditioning will be used
 using additional bands            5
 reciprocal scheme for non local part
 use partial core corrections
 calculate Harris-corrections to forces 
   (improved forces if not selfconsistent)
 use gradient corrections 
 use of overlap-Matrix (Vanderbilt PP)
 Fermi weights with tetrahedron method with Bloechl corrections


--------------------------------------------------------------------------------------------------------


  energy-cutoff  :      450.00
  volume of cell :      272.18
      direct lattice vectors                 reciprocal lattice vectors
     3.190315730  0.000000000  0.000000000     0.313448600  0.180969634  0.000000000
    -1.595157865  2.762894468  0.000000000     0.000000000  0.361939267  0.000000000
     0.000000000  0.000000000 30.879004300     0.000000000  0.000000000  0.032384464

  length of vectors
     3.190315730  3.190315730 30.879004300     0.361939267  0.361939267  0.032384464


 
 k-points in units of 2pi/SCALE and weight: k-density: 2.0                          
   0.00000000  0.00000000  0.00000000       0.062
   0.07836215  0.04524241  0.00000000       0.375
   0.15672430  0.09048482  0.00000000       0.188
   0.07836215  0.13572723  0.00000000       0.375
 
 k-points in reciprocal lattice and weights: k-density: 2.0                          
   0.00000000  0.00000000  0.00000000       0.062
   0.25000000 -0.00000000  0.00000000       0.375
   0.50000000 -0.00000000  0.00000000       0.188
   0.25000000  0.25000000  0.00000000       0.375
 
 position of ions in fractional coordinates (direct lattice) 
   0.33333300  0.66666700  0.12046214
   0.66666700  0.33333300  0.06978420
   0.66666600  0.33333300  0.17114009
 
 position of ions in cartesian coordinates  (Angst):
  -0.00000160  1.84193057  3.71975108
   1.59515946  0.92096390  2.15486668
   1.59515627  0.92096390  5.28463547
 


--------------------------------------------------------------------------------------------------------


 k-point  1 :   0.0000 0.0000 0.0000  plane waves:    6011
 k-point  2 :   0.2500-0.0000 0.0000  plane waves:    5920
 k-point  3 :   0.5000-0.0000 0.0000  plane waves:    5816
 k-point  4 :   0.2500 0.2500 0.0000  plane waves:    5894

 maximum and minimum number of plane-waves per node :      3010     2897

 maximum number of plane-waves:      6011
 maximum index in each direction: 
   IXMAX=    5   IYMAX=    5   IZMAX=   53
   IXMIN=   -6   IYMIN=   -5   IZMIN=  -53


 parallel 3D FFT for wavefunctions:
    minimum data exchange during FFTs selected (reduces bandwidth)
 parallel 3D FFT for charge:
    minimum data exchange during FFTs selected (reduces bandwidth)


 total amount of memory used by VASP MPI-rank0    46164. kBytes
=======================================================================

   base      :      30000. kBytes
   nonl-proj :       3602. kBytes
   fftplans  :       4304. kBytes
   grid      :       6871. kBytes
   one-center:         31. kBytes
   wavefun   :       1356. kBytes
 
     INWAV:  cpu time    0.0000: real time    0.0000
 Broyden mixing: mesh for mixing (old mesh)
   NGX = 11   NGY = 11   NGZ =107
  (NGX  = 36   NGY  = 36   NGZ  =320)
  gives a total of  12947 points

 initial charge density was supplied:
 charge density of overlapping atoms calculated
 number of electron      18.0000000 magnetization 
 keeping initial charge density in first step


--------------------------------------------------------------------------------------------------------


 Maximum index for augmentation-charges         2904 (set IRDMAX)


--------------------------------------------------------------------------------------------------------


 First call to EWALD:  gamma=   0.273
 Maximum number of real-space cells 6x 6x 1
 Maximum number of reciprocal cells 2x 2x11

    FEWALD:  cpu time    0.0020: real time    0.0017


--------------------------------------- Iteration      1(   1)  ---------------------------------------


    POTLOK:  cpu time    0.0540: real time    0.0726
    SETDIJ:  cpu time    0.0040: real time    0.0035
     EDDAV:  cpu time    0.1020: real time    0.1056
 BZINTS: Fermi energy:  6.538661; 18.000000 electrons
         Band energy: -13.301292;  BLOECHL correction: -0.574790
       DOS:  cpu time    0.0000: real time    0.0005
    --------------------------------------------
      LOOP:  cpu time    0.1600: real time    0.1822

 eigenvalue-minimisations  :   112
 total energy-change (2. order) : 0.1364275E+03  (-0.5013019E+03)
 number of electron      18.0000000 magnetization 
 augmentation part       18.0000000 magnetization 

 Free energy of the ion-electron system (eV)
  ---------------------------------------------------
  alpha Z        PSCENC =        10.89288288
  Ewald energy   TEWEN  =      5368.65661653
  -Hartree energ DENC   =     -6042.21104469
  -exchange      EXHF   =         0.00000000
  -V(xc)+E(xc)   XCENC  =       -36.31053806
  PAW double counting   =       406.88651198     -329.34073203
  entropy T*S    EENTRO =         0.00000000
  eigenvalues    EBANDS =       -13.30129199
  atomic energy  EATOM  =       771.15511399
  Solvation  Ediel_sol  =         0.00000000
  ---------------------------------------------------
  free energy    TOTEN  =       136.42751860 eV

  energy without entropy =      136.42751860  energy(sigma->0) =      136.42751860


--------------------------------------------------------------------------------------------------------




--------------------------------------- Iteration      1(   2)  ---------------------------------------


     EDDAV:  cpu time    0.1480: real time    0.1495
 BZINTS: Fermi energy: -2.511152; 18.000000 electrons
         Band energy:-155.980107;  BLOECHL correction:  0.000000
       DOS:  cpu time    0.0010: real time    0.0001
    --------------------------------------------
      LOOP:  cpu time    0.1490: real time    0.1496

 eigenvalue-minimisations  :   196
 total energy-change (2. order) :-0.1426788E+03  (-0.1374460E+03)
 number of electron      18.0000000 magnetization 
 augmentation part       18.0000000 magnetization 

 Free energy of the ion-electron system (eV)
  ---------------------------------------------------
  alpha Z        PSCENC =        10.89288288
  Ewald energy   TEWEN  =      5368.65661653
  -Hartree energ DENC   =     -6042.21104469
  -exchange      EXHF   =         0.00000000
  -V(xc)+E(xc)   XCENC  =       -36.31053806
  PAW double counting   =       406.88651198     -329.34073203
  entropy T*S    EENTRO =         0.00000000
  eigenvalues    EBANDS =      -155.98010692
  atomic energy  EATOM  =       771.15511399
  Solvation  Ediel_sol  =         0.00000000
  ---------------------------------------------------
  free energy    TOTEN  =        -6.25129632 eV

  energy without entropy =       -6.25129632  energy(sigma->0) =       -6.25129632


--------------------------------------------------------------------------------------------------------




--------------------------------------- Iteration      1(   3)  ---------------------------------------


     EDDAV:  cpu time    0.1170: real time    0.1184
 BZINTS: Fermi energy: -3.613902; 18.000000 electrons
         Band energy:-172.839920;  BLOECHL correction:  0.000000
       DOS:  cpu time    0.0000: real time    0.0001
    --------------------------------------------
      LOOP:  cpu time    0.1170: real time    0.1185

 eigenvalue-minimisations  :   154
 total energy-change (2. order) :-0.1685981E+02  (-0.1669323E+02)
 number of electron      18.0000000 magnetization 
 augmentation part       18.0000000 magnetization 

 Free energy of the ion-electron system (eV)
  ---------------------------------------------------
  alpha Z        PSCENC =        10.89288288
  Ewald energy   TEWEN  =      5368.65661653
  -Hartree energ DENC   =     -6042.21104469
  -exchange      EXHF   =         0.00000000
  -V(xc)+E(xc)   XCENC  =       -36.31053806
  PAW double counting   =       406.88651198     -329.34073203
  entropy T*S    EENTRO =         0.00000000
  eigenvalues    EBANDS =      -172.83991977
  atomic energy  EATOM  =       771.15511399
  Solvation  Ediel_sol  =         0.00000000
  ---------------------------------------------------
  free energy    TOTEN  =       -23.11110917 eV

  energy without entropy =      -23.11110917  energy(sigma->0) =      -23.11110917


--------------------------------------------------------------------------------------------------------




--------------------------------------- Iteration      1(   4)  ---------------------------------------


     EDDAV:  cpu time    0.1160: real time    0.1159
 BZINTS: Fermi energy: -3.705302; 18.000000 electrons
         Band energy:-173.167311;  BLOECHL correction:  0.000000
       DOS:  cpu time    0.0000: real time    0.0001
    --------------------------------------------
      LOOP:  cpu time    0.1160: real time    0.1160

 eigenvalue-minimisations  :   150
 total energy-change (2. order) :-0.3273914E+00  (-0.3254527E+00)
 number of electron      18.0000000 magnetization 
 augmentation part       18.0000000 magnetization 

 Free energy of the ion-electron system (eV)
  ---------------------------------------------------
  alpha Z        PSCENC =        10.89288288
  Ewald energy   TEWEN  =      5368.65661653
  -Hartree energ DENC   =     -6042.21104469
  -exchange      EXHF   =         0.00000000
  -V(xc)+E(xc)   XCENC  =       -36.31053806
  PAW double counting   =       406.88651198     -329.34073203
  entropy T*S    EENTRO =         0.00000000
  eigenvalues    EBANDS =      -173.16731118
  atomic energy  EATOM  =       771.15511399
  Solvation  Ediel_sol  =         0.00000000
  ---------------------------------------------------
  free energy    TOTEN  =       -23.43850059 eV

  energy without entropy =      -23.43850059  energy(sigma->0) =      -23.43850059


--------------------------------------------------------------------------------------------------------




--------------------------------------- Iteration      1(   5)  ---------------------------------------


     EDDAV:  cpu time    0.1220: real time    0.1232
 BZINTS: Fermi energy: -3.732009; 18.000000 electrons
         Band energy:-173.175052;  BLOECHL correction:  0.000000
       DOS:  cpu time    0.0000: real time    0.0001
    CHARGE:  cpu time    0.0140: real time    0.0141
    MIXING:  cpu time    0.0020: real time    0.0019
    --------------------------------------------
      LOOP:  cpu time    0.1380: real time    0.1393

 eigenvalue-minimisations  :   162
 total energy-change (2. order) :-0.7740444E-02  (-0.7738628E-02)
 number of electron      18.0000016 magnetization 
 augmentation part       -0.9419161 magnetization 

 Broyden mixing:
  rms(total) = 0.68454E+00    rms(broyden)= 0.68453E+00
  rms(prec ) = 0.72791E+00
  weight for this iteration     100.00

 Free energy of the ion-electron system (eV)
  ---------------------------------------------------
  alpha Z        PSCENC =        10.89288288
  Ewald energy   TEWEN  =      5368.65661653
  -Hartree energ DENC   =     -6042.21104469
  -exchange      EXHF   =         0.00000000
  -V(xc)+E(xc)   XCENC  =       -36.31053806
  PAW double counting   =       406.88651198     -329.34073203
  entropy T*S    EENTRO =         0.00000000
  eigenvalues    EBANDS =      -173.17505163
  atomic energy  EATOM  =       771.15511399
  Solvation  Ediel_sol  =         0.00000000
  ---------------------------------------------------
  free energy    TOTEN  =       -23.44624103 eV

  energy without entropy =      -23.44624103  energy(sigma->0) =      -23.44624103


--------------------------------------------------------------------------------------------------------




--------------------------------------- Iteration      1(   6)  ---------------------------------------


    POTLOK:  cpu time    0.0490: real time    0.0493
    SETDIJ:  cpu time    0.0030: real time    0.0031
    EDDIAG:  cpu time    0.0210: real time    0.0214
  RMM-DIIS:  cpu time    0.0800: real time    0.0804
    ORTHCH:  cpu time    0.0030: real time    0.0025
 BZINTS: Fermi energy: -4.703793; 18.000000 electrons
         Band energy:-173.580491;  BLOECHL correction:  0.000000
       DOS:  cpu time    0.0000: real time    0.0001
    CHARGE:  cpu time    0.0140: real time    0.0143
    MIXING:  cpu time    0.0010: real time    0.0018
    --------------------------------------------
      LOOP:  cpu time    0.1710: real time    0.1728

 eigenvalue-minimisations  :   116
 total energy-change (2. order) : 0.1163277E+01  (-0.5299911E+00)
 number of electron      18.0000016 magnetization 
 augmentation part       -0.4081893 magnetization 

 Broyden mixing:
  rms(total) = 0.25428E+00    rms(broyden)= 0.25427E+00
  rms(prec ) = 0.28811E+00
  weight for this iteration     100.00

 eigenvalues of (default mixing * dielectric matrix)
  average eigenvalue GAMMA=   0.8432
  0.8432

 Free energy of the ion-electron system (eV)
  ---------------------------------------------------
  alpha Z        PSCENC =        10.89288288
  Ewald energy   TEWEN  =      5368.65661653
  -Hartree energ DENC   =     -6040.63773630
  -exchange      EXHF   =         0.00000000
  -V(xc)+E(xc)   XCENC  =       -35.43110703
  PAW double counting   =       424.02855606     -347.36679915
  entropy T*S    EENTRO =         0.00000000
  eigenvalues    EBANDS =      -173.58049071
  atomic energy  EATOM  =       771.15511399
  Solvation  Ediel_sol  =         0.00000000
  ---------------------------------------------------
  free energy    TOTEN  =       -22.28296372 eV

  energy without entropy =      -22.28296372  energy(sigma->0) =      -22.28296372


--------------------------------------------------------------------------------------------------------




--------------------------------------- Iteration      1(   7)  ---------------------------------------


    POTLOK:  cpu time    0.0460: real time    0.0457
    SETDIJ:  cpu time    0.0030: real time    0.0030
    EDDIAG:  cpu time    0.0210: real time    0.0209
  RMM-DIIS:  cpu time    0.0800: real time    0.0803
    ORTHCH:  cpu time    0.0020: real time    0.0024
 BZINTS: Fermi energy: -4.176977; 18.000000 electrons
         Band energy:-167.356720;  BLOECHL correction:  0.000000
       DOS:  cpu time    0.0010: real time    0.0001
    CHARGE:  cpu time    0.0140: real time    0.0144
    MIXING:  cpu time    0.0020: real time    0.0018
    --------------------------------------------
      LOOP:  cpu time    0.1690: real time    0.1686

 eigenvalue-minimisations  :   116
 total energy-change (2. order) : 0.3689911E+00  (-0.5297829E-01)
 number of electron      18.0000016 magnetization 
 augmentation part       -0.5967507 magnetization 

 Broyden mixing:
  rms(total) = 0.14616E+00    rms(broyden)= 0.14616E+00
  rms(prec ) = 0.15239E+00
  weight for this iteration     100.00

 eigenvalues of (default mixing * dielectric matrix)
  average eigenvalue GAMMA=   1.3717
  0.6784  2.0649

 Free energy of the ion-electron system (eV)
  ---------------------------------------------------
  alpha Z        PSCENC =        10.89288288
  Ewald energy   TEWEN  =      5368.65661653
  -Hartree energ DENC   =     -6046.11811267
  -exchange      EXHF   =         0.00000000
  -V(xc)+E(xc)   XCENC  =       -35.56809606
  PAW double counting   =       441.60520372     -365.18086111
  entropy T*S    EENTRO =         0.00000000
  eigenvalues    EBANDS =      -167.35671986
  atomic energy  EATOM  =       771.15511399
  Solvation  Ediel_sol  =         0.00000000
  ---------------------------------------------------
  free energy    TOTEN  =       -21.91397258 eV

  energy without entropy =      -21.91397258  energy(sigma->0) =      -21.91397258


--------------------------------------------------------------------------------------------------------




--------------------------------------- Iteration      1(   8)  ---------------------------------------


    POTLOK:  cpu time    0.0440: real time    0.0487
    SETDIJ:  cpu time    0.0040: real time    0.0030
    EDDIAG:  cpu time    0.0210: real time    0.0209
  RMM-DIIS:  cpu time    0.0850: real time    0.0850
    ORTHCH:  cpu time    0.0030: real time    0.0025
 BZINTS: Fermi energy: -4.047319; 18.000000 electrons
         Band energy:-162.948146;  BLOECHL correction:  0.000000
       DOS:  cpu time    0.0000: real time    0.0001
    CHARGE:  cpu time    0.0140: real time    0.0144
    MIXING:  cpu time    0.0020: real time    0.0025
    --------------------------------------------
      LOOP:  cpu time    0.1730: real time    0.1770

 eigenvalue-minimisations  :   121
 total energy-change (2. order) : 0.5785361E-01  (-0.2291442E-01)
 number of electron      18.0000016 magnetization 
 augmentation part       -0.5538577 magnetization 

 Broyden mixing:
  rms(total) = 0.35064E-01    rms(broyden)= 0.35062E-01
  rms(prec ) = 0.36921E-01
  weight for this iteration     100.00

 eigenvalues of (default mixing * dielectric matrix)
  average eigenvalue GAMMA=   1.5194
  1.9398  1.9398  0.6785

 Free energy of the ion-electron system (eV)
  ---------------------------------------------------
  alpha Z        PSCENC =        10.89288288
  Ewald energy   TEWEN  =      5368.65661653
  -Hartree energ DENC   =     -6050.22320038
  -exchange      EXHF   =         0.00000000
  -V(xc)+E(xc)   XCENC  =       -35.30397689
  PAW double counting   =       465.25746880     -389.34287801
  entropy T*S    EENTRO =         0.00000000
  eigenvalues    EBANDS =      -162.94814590
  atomic energy  EATOM  =       771.15511399
  Solvation  Ediel_sol  =         0.00000000
  ---------------------------------------------------
  free energy    TOTEN  =       -21.85611897 eV

  energy without entropy =      -21.85611897  energy(sigma->0) =      -21.85611897


--------------------------------------------------------------------------------------------------------




--------------------------------------- Iteration      1(   9)  ---------------------------------------


    POTLOK:  cpu time    0.0450: real time    0.0459
    SETDIJ:  cpu time    0.0030: real time    0.0030
    EDDIAG:  cpu time    0.0210: real time    0.0209
  RMM-DIIS:  cpu time    0.0930: real time    0.0931
    ORTHCH:  cpu time    0.0030: real time    0.0025
 BZINTS: Fermi energy: -3.972665; 18.000000 electrons
         Band energy:-161.602515;  BLOECHL correction:  0.000000
       DOS:  cpu time    0.0000: real time    0.0001
    CHARGE:  cpu time    0.0140: real time    0.0144
    MIXING:  cpu time    0.0020: real time    0.0019
    --------------------------------------------
      LOOP:  cpu time    0.1810: real time    0.1818

 eigenvalue-minimisations  :   133
 total energy-change (2. order) : 0.4828438E-02  (-0.9185542E-03)
 number of electron      18.0000016 magnetization 
 augmentation part       -0.5459630 magnetization 

 Broyden mixing:
  rms(total) = 0.10189E-01    rms(broyden)= 0.10189E-01
  rms(prec ) = 0.12226E-01
  weight for this iteration     100.00

 eigenvalues of (default mixing * dielectric matrix)
  average eigenvalue GAMMA=   1.5050
  0.6829  1.0323  2.4146  1.8901

 Free energy of the ion-electron system (eV)
  ---------------------------------------------------
  alpha Z        PSCENC =        10.89288288
  Ewald energy   TEWEN  =      5368.65661653
  -Hartree energ DENC   =     -6051.54472712
  -exchange      EXHF   =         0.00000000
  -V(xc)+E(xc)   XCENC  =       -35.24743880
  PAW double counting   =       470.43055426     -394.59177757
  entropy T*S    EENTRO =         0.00000000
  eigenvalues    EBANDS =      -161.60251470
  atomic energy  EATOM  =       771.15511399
  Solvation  Ediel_sol  =         0.00000000
  ---------------------------------------------------
  free energy    TOTEN  =       -21.85129053 eV

  energy without entropy =      -21.85129053  energy(sigma->0) =      -21.85129053


--------------------------------------------------------------------------------------------------------




--------------------------------------- Iteration      1(  10)  ---------------------------------------


    POTLOK:  cpu time    0.0460: real time    0.0460
    SETDIJ:  cpu time    0.0030: real time    0.0030
    EDDIAG:  cpu time    0.0200: real time    0.0209
  RMM-DIIS:  cpu time    0.0940: real time    0.0929
    ORTHCH:  cpu time    0.0020: real time    0.0025
 BZINTS: Fermi energy: -3.832951; 18.000000 electrons
         Band energy:-160.419491;  BLOECHL correction:  0.000000
       DOS:  cpu time    0.0000: real time    0.0001
    CHARGE:  cpu time    0.0140: real time    0.0144
    MIXING:  cpu time    0.0020: real time    0.0020
    --------------------------------------------
      LOOP:  cpu time    0.1810: real time    0.1819

 eigenvalue-minimisations  :   131
 total energy-change (2. order) : 0.8811414E-03  (-0.1610755E-03)
 number of electron      18.0000016 magnetization 
 augmentation part       -0.5523404 magnetization 

 Broyden mixing:
  rms(total) = 0.46179E-02    rms(broyden)= 0.46178E-02
  rms(prec ) = 0.59852E-02
  weight for this iteration     100.00

 eigenvalues of (default mixing * dielectric matrix)
  average eigenvalue GAMMA=   1.6604
  0.6838  1.0349  2.1887  2.1974  2.1974

 Free energy of the ion-electron system (eV)
  ---------------------------------------------------
  alpha Z        PSCENC =        10.89288288
  Ewald energy   TEWEN  =      5368.65661653
  -Hartree energ DENC   =     -6052.71643316
  -exchange      EXHF   =         0.00000000
  -V(xc)+E(xc)   XCENC  =       -35.22980767
  PAW double counting   =       472.61673578     -396.80602698
  entropy T*S    EENTRO =         0.00000000
  eigenvalues    EBANDS =      -160.41949077
  atomic energy  EATOM  =       771.15511399
  Solvation  Ediel_sol  =         0.00000000
  ---------------------------------------------------
  free energy    TOTEN  =       -21.85040939 eV

  energy without entropy =      -21.85040939  energy(sigma->0) =      -21.85040939


--------------------------------------------------------------------------------------------------------




--------------------------------------- Iteration      1(  11)  ---------------------------------------


    POTLOK:  cpu time    0.0460: real time    0.0466
    SETDIJ:  cpu time    0.0030: real time    0.0025
    EDDIAG:  cpu time    0.0210: real time    0.0208
  RMM-DIIS:  cpu time    0.0880: real time    0.0878
    ORTHCH:  cpu time    0.0020: real time    0.0025
 BZINTS: Fermi energy: -3.852891; 18.000000 electrons
         Band energy:-159.246275;  BLOECHL correction:  0.000000
       DOS:  cpu time    0.0000: real time    0.0001
    CHARGE:  cpu time    0.0140: real time    0.0145
    MIXING:  cpu time    0.0020: real time    0.0020
    --------------------------------------------
      LOOP:  cpu time    0.1760: real time    0.1767

 eigenvalue-minimisations  :   123
 total energy-change (2. order) : 0.8309889E-04  (-0.1666597E-03)
 number of electron      18.0000016 magnetization 
 augmentation part       -0.5479808 magnetization 

 Broyden mixing:
  rms(total) = 0.56565E-02    rms(broyden)= 0.56565E-02
  rms(prec ) = 0.63756E-02
  weight for this iteration     100.00

 eigenvalues of (default mixing * dielectric matrix)
  average eigenvalue GAMMA=   1.6814
  2.9726  2.6402  0.6849  0.9354  1.4276  1.4276

 Free energy of the ion-electron system (eV)
  ---------------------------------------------------
  alpha Z        PSCENC =        10.89288288
  Ewald energy   TEWEN  =      5368.65661653
  -Hartree energ DENC   =     -6053.91270069
  -exchange      EXHF   =         0.00000000
  -V(xc)+E(xc)   XCENC  =       -35.21474041
  PAW double counting   =       472.10833026     -396.28955350
  entropy T*S    EENTRO =         0.00000000
  eigenvalues    EBANDS =      -159.24627535
  atomic energy  EATOM  =       771.15511399
  Solvation  Ediel_sol  =         0.00000000
  ---------------------------------------------------
  free energy    TOTEN  =       -21.85032629 eV

  energy without entropy =      -21.85032629  energy(sigma->0) =      -21.85032629


--------------------------------------------------------------------------------------------------------




--------------------------------------- Iteration      1(  12)  ---------------------------------------


    POTLOK:  cpu time    0.0470: real time    0.0467
    SETDIJ:  cpu time    0.0030: real time    0.0025
    EDDIAG:  cpu time    0.0200: real time    0.0208
  RMM-DIIS:  cpu time    0.0870: real time    0.0870
    ORTHCH:  cpu time    0.0030: real time    0.0025
 BZINTS: Fermi energy: -3.733828; 18.000000 electrons
         Band energy:-158.509703;  BLOECHL correction:  0.000000
       DOS:  cpu time    0.0000: real time    0.0001
    CHARGE:  cpu time    0.0140: real time    0.0145
    MIXING:  cpu time    0.0020: real time    0.0021
    --------------------------------------------
      LOOP:  cpu time    0.1760: real time    0.1762

 eigenvalue-minimisations  :   121
 total energy-change (2. order) : 0.1685736E-03  (-0.5555004E-04)
 number of electron      18.0000016 magnetization 
 augmentation part       -0.5511773 magnetization 

 Broyden mixing:
  rms(total) = 0.19287E-02    rms(broyden)= 0.19286E-02
  rms(prec ) = 0.24144E-02
  weight for this iteration     100.00

 eigenvalues of (default mixing * dielectric matrix)
  average eigenvalue GAMMA=   1.9304
  3.8643  2.6614  2.6614  0.6849  0.9599  1.4370  1.2437

 Free energy of the ion-electron system (eV)
  ---------------------------------------------------
  alpha Z        PSCENC =        10.89288288
  Ewald energy   TEWEN  =      5368.65661653
  -Hartree energ DENC   =     -6054.65511893
  -exchange      EXHF   =         0.00000000
  -V(xc)+E(xc)   XCENC  =       -35.21167253
  PAW double counting   =       472.26557744     -396.44385436
  entropy T*S    EENTRO =         0.00000000
  eigenvalues    EBANDS =      -158.50970275
  atomic energy  EATOM  =       771.15511399
  Solvation  Ediel_sol  =         0.00000000
  ---------------------------------------------------
  free energy    TOTEN  =       -21.85015771 eV

  energy without entropy =      -21.85015771  energy(sigma->0) =      -21.85015771


--------------------------------------------------------------------------------------------------------




--------------------------------------- Iteration      1(  13)  ---------------------------------------


    POTLOK:  cpu time    0.0470: real time    0.0476
    SETDIJ:  cpu time    0.0030: real time    0.0025
    EDDIAG:  cpu time    0.0200: real time    0.0208
  RMM-DIIS:  cpu time    0.0780: real time    0.0774
    ORTHCH:  cpu time    0.0020: real time    0.0025
 BZINTS: Fermi energy: -3.773048; 18.000000 electrons
         Band energy:-157.753158;  BLOECHL correction:  0.000000
       DOS:  cpu time    0.0000: real time    0.0001
    CHARGE:  cpu time    0.0150: real time    0.0145
    MIXING:  cpu time    0.0020: real time    0.0022
    --------------------------------------------
      LOOP:  cpu time    0.1670: real time    0.1675

 eigenvalue-minimisations  :   115
 total energy-change (2. order) :-0.3348767E-03  (-0.1790449E-04)
 number of electron      18.0000016 magnetization 
 augmentation part       -0.5493667 magnetization 

 Broyden mixing:
  rms(total) = 0.20290E-02    rms(broyden)= 0.20290E-02
  rms(prec ) = 0.22384E-02
  weight for this iteration     100.00

 eigenvalues of (default mixing * dielectric matrix)
  average eigenvalue GAMMA=   1.9290
  4.9076  2.7324  2.3391  1.4374  1.4374  0.6851  0.9467  0.9467

 Free energy of the ion-electron system (eV)
  ---------------------------------------------------
  alpha Z        PSCENC =        10.89288288
  Ewald energy   TEWEN  =      5368.65661653
  -Hartree energ DENC   =     -6055.41468435
  -exchange      EXHF   =         0.00000000
  -V(xc)+E(xc)   XCENC  =       -35.20439502
  PAW double counting   =       472.18835224     -396.37122045
  entropy T*S    EENTRO =         0.00000000
  eigenvalues    EBANDS =      -157.75315841
  atomic energy  EATOM  =       771.15511399
  Solvation  Ediel_sol  =         0.00000000
  ---------------------------------------------------
  free energy    TOTEN  =       -21.85049259 eV

  energy without entropy =      -21.85049259  energy(sigma->0) =      -21.85049259


--------------------------------------------------------------------------------------------------------




--------------------------------------- Iteration      1(  14)  ---------------------------------------


    POTLOK:  cpu time    0.0470: real time    0.0505
    SETDIJ:  cpu time    0.0030: real time    0.0025
    EDDIAG:  cpu time    0.0210: real time    0.0208
  RMM-DIIS:  cpu time    0.0770: real time    0.0762
    ORTHCH:  cpu time    0.0020: real time    0.0025
 BZINTS: Fermi energy: -3.761822; 18.000000 electrons
         Band energy:-157.549164;  BLOECHL correction:  0.000000
       DOS:  cpu time    0.0000: real time    0.0001
    CHARGE:  cpu time    0.0140: real time    0.0144
    MIXING:  cpu time    0.0020: real time    0.0022
    --------------------------------------------
      LOOP:  cpu time    0.1660: real time    0.1693

 eigenvalue-minimisations  :   101
 total energy-change (2. order) :-0.7284077E-04  (-0.2989498E-05)
 number of electron      18.0000016 magnetization 
 augmentation part       -0.5505896 magnetization 

 Broyden mixing:
  rms(total) = 0.55947E-03    rms(broyden)= 0.55946E-03
  rms(prec ) = 0.69240E-03
  weight for this iteration     100.00

 eigenvalues of (default mixing * dielectric matrix)
  average eigenvalue GAMMA=   2.1879
  6.6340  3.0082  2.3905  2.3905  1.4862  0.6851  1.1994  0.9484  0.9484

 Free energy of the ion-electron system (eV)
  ---------------------------------------------------
  alpha Z        PSCENC =        10.89288288
  Ewald energy   TEWEN  =      5368.65661653
  -Hartree energ DENC   =     -6055.62105693
  -exchange      EXHF   =         0.00000000
  -V(xc)+E(xc)   XCENC  =       -35.20637632
  PAW double counting   =       472.00981137     -396.18839306
  entropy T*S    EENTRO =         0.00000000
  eigenvalues    EBANDS =      -157.54916390
  atomic energy  EATOM  =       771.15511399
  Solvation  Ediel_sol  =         0.00000000
  ---------------------------------------------------
  free energy    TOTEN  =       -21.85056543 eV

  energy without entropy =      -21.85056543  energy(sigma->0) =      -21.85056543


--------------------------------------------------------------------------------------------------------




--------------------------------------- Iteration      1(  15)  ---------------------------------------


    POTLOK:  cpu time    0.0480: real time    0.0477
    SETDIJ:  cpu time    0.0030: real time    0.0025
    EDDIAG:  cpu time    0.0200: real time    0.0208
  RMM-DIIS:  cpu time    0.0610: real time    0.0605
    ORTHCH:  cpu time    0.0020: real time    0.0025
 BZINTS: Fermi energy: -3.752624; 18.000000 electrons
         Band energy:-157.397215;  BLOECHL correction:  0.000000
       DOS:  cpu time    0.0000: real time    0.0001
    CHARGE:  cpu time    0.0150: real time    0.0145
    MIXING:  cpu time    0.0020: real time    0.0024
    --------------------------------------------
      LOOP:  cpu time    0.1510: real time    0.1509

 eigenvalue-minimisations  :    73
 total energy-change (2. order) :-0.1303842E-03  (-0.1422291E-05)
 number of electron      18.0000016 magnetization 
 augmentation part       -0.5503485 magnetization 

 Broyden mixing:
  rms(total) = 0.28819E-03    rms(broyden)= 0.28819E-03
  rms(prec ) = 0.35263E-03
  weight for this iteration     100.00

 eigenvalues of (default mixing * dielectric matrix)
  average eigenvalue GAMMA=   2.1741
  6.7054  3.6216  2.6371  1.7387  1.7387  1.6343  0.6852  1.0462  0.9966  0.9376

 Free energy of the ion-electron system (eV)
  ---------------------------------------------------
  alpha Z        PSCENC =        10.89288288
  Ewald energy   TEWEN  =      5368.65661653
  -Hartree energ DENC   =     -6055.77311290
  -exchange      EXHF   =         0.00000000
  -V(xc)+E(xc)   XCENC  =       -35.20617550
  PAW double counting   =       472.04130277     -396.22010878
  entropy T*S    EENTRO =         0.00000000
  eigenvalues    EBANDS =      -157.39721481
  atomic energy  EATOM  =       771.15511399
  Solvation  Ediel_sol  =         0.00000000
  ---------------------------------------------------
  free energy    TOTEN  =       -21.85069582 eV

  energy without entropy =      -21.85069582  energy(sigma->0) =      -21.85069582


--------------------------------------------------------------------------------------------------------




--------------------------------------- Iteration      1(  16)  ---------------------------------------


    POTLOK:  cpu time    0.0480: real time    0.0484
    SETDIJ:  cpu time    0.0030: real time    0.0030
    EDDIAG:  cpu time    0.0210: real time    0.0208
  RMM-DIIS:  cpu time    0.0580: real time    0.0580
    ORTHCH:  cpu time    0.0020: real time    0.0024
 BZINTS: Fermi energy: -3.749135; 18.000000 electrons
         Band energy:-157.338021;  BLOECHL correction:  0.000000
       DOS:  cpu time    0.0000: real time    0.0001
    CHARGE:  cpu time    0.0140: real time    0.0141
    MIXING:  cpu time    0.0030: real time    0.0025
    --------------------------------------------
      LOOP:  cpu time    0.1490: real time    0.1494

 eigenvalue-minimisations  :    71
 total energy-change (2. order) :-0.4225447E-04  (-0.3027559E-06)
 number of electron      18.0000016 magnetization 
 augmentation part       -0.5505028 magnetization 

 Broyden mixing:
  rms(total) = 0.17667E-03    rms(broyden)= 0.17667E-03
  rms(prec ) = 0.20172E-03
  weight for this iteration     100.00

 eigenvalues of (default mixing * dielectric matrix)
  average eigenvalue GAMMA=   2.2814
  7.4359  3.6704  2.8047  2.7215  2.1338  1.5609  0.6852  1.0876  1.0876  0.9864
  0.9213

 Free energy of the ion-electron system (eV)
  ---------------------------------------------------
  alpha Z        PSCENC =        10.89288288
  Ewald energy   TEWEN  =      5368.65661653
  -Hartree energ DENC   =     -6055.83150237
  -exchange      EXHF   =         0.00000000
  -V(xc)+E(xc)   XCENC  =       -35.20610120
  PAW double counting   =       472.09499950     -396.27472667
  entropy T*S    EENTRO =         0.00000000
  eigenvalues    EBANDS =      -157.33802073
  atomic energy  EATOM  =       771.15511399
  Solvation  Ediel_sol  =         0.00000000
  ---------------------------------------------------
  free energy    TOTEN  =       -21.85073807 eV

  energy without entropy =      -21.85073807  energy(sigma->0) =      -21.85073807


--------------------------------------------------------------------------------------------------------




--------------------------------------- Iteration      1(  17)  ---------------------------------------


    POTLOK:  cpu time    0.0460: real time    0.0462
    SETDIJ:  cpu time    0.0030: real time    0.0030
    EDDIAG:  cpu time    0.0210: real time    0.0208
  RMM-DIIS:  cpu time    0.0500: real time    0.0506
    ORTHCH:  cpu time    0.0030: real time    0.0024
 BZINTS: Fermi energy: -3.747394; 18.000000 electrons
         Band energy:-157.305539;  BLOECHL correction:  0.000000
       DOS:  cpu time    0.0000: real time    0.0001
    CHARGE:  cpu time    0.0140: real time    0.0141
    MIXING:  cpu time    0.0020: real time    0.0026
    --------------------------------------------
      LOOP:  cpu time    0.1390: real time    0.1398

 eigenvalue-minimisations  :    51
 total energy-change (2. order) :-0.2964535E-04  (-0.2293857E-06)
 number of electron      18.0000016 magnetization 
 augmentation part       -0.5504993 magnetization 

 Broyden mixing:
  rms(total) = 0.10131E-03    rms(broyden)= 0.10131E-03
  rms(prec ) = 0.11658E-03
  weight for this iteration     100.00

 eigenvalues of (default mixing * dielectric matrix)
  average eigenvalue GAMMA=   2.3032
  7.7064  4.7028  2.9209  2.5128  2.1071  1.5212  1.5212  0.6852  1.0430  1.0430
  0.9376  0.9376

 Free energy of the ion-electron system (eV)
  ---------------------------------------------------
  alpha Z        PSCENC =        10.89288288
  Ewald energy   TEWEN  =      5368.65661653
  -Hartree energ DENC   =     -6055.86474399
  -exchange      EXHF   =         0.00000000
  -V(xc)+E(xc)   XCENC  =       -35.20619153
  PAW double counting   =       472.05586495     -396.23477175
  entropy T*S    EENTRO =         0.00000000
  eigenvalues    EBANDS =      -157.30553879
  atomic energy  EATOM  =       771.15511399
  Solvation  Ediel_sol  =         0.00000000
  ---------------------------------------------------
  free energy    TOTEN  =       -21.85076772 eV

  energy without entropy =      -21.85076772  energy(sigma->0) =      -21.85076772


--------------------------------------------------------------------------------------------------------




--------------------------------------- Iteration      1(  18)  ---------------------------------------


    POTLOK:  cpu time    0.0450: real time    0.0461
    SETDIJ:  cpu time    0.0040: real time    0.0030
    EDDIAG:  cpu time    0.0210: real time    0.0208
  RMM-DIIS:  cpu time    0.0500: real time    0.0495
    ORTHCH:  cpu time    0.0020: real time    0.0024
 BZINTS: Fermi energy: -3.747241; 18.000000 electrons
         Band energy:-157.302763;  BLOECHL correction:  0.000000
       DOS:  cpu time    0.0000: real time    0.0001
    --------------------------------------------
      LOOP:  cpu time    0.1220: real time    0.1218

 eigenvalue-minimisations  :    31
 total energy-change (2. order) :-0.5884694E-05  (-0.3778115E-07)
 number of electron      18.0000016 magnetization 
 augmentation part       -0.5504993 magnetization 

 Free energy of the ion-electron system (eV)
  ---------------------------------------------------
  alpha Z        PSCENC =        10.89288288
  Ewald energy   TEWEN  =      5368.65661653
  -Hartree energ DENC   =     -6055.86740903
  -exchange      EXHF   =         0.00000000
  -V(xc)+E(xc)   XCENC  =       -35.20618140
  PAW double counting   =       472.06171830     -396.24075221
  entropy T*S    EENTRO =         0.00000000
  eigenvalues    EBANDS =      -157.30276267
  atomic energy  EATOM  =       771.15511399
  Solvation  Ediel_sol  =         0.00000000
  ---------------------------------------------------
  free energy    TOTEN  =       -21.85077360 eV

  energy without entropy =      -21.85077360  energy(sigma->0) =      -21.85077360


--------------------------------------------------------------------------------------------------------




 average (electrostatic) potential at core
  the test charge radii are     1.2296  0.9698
  (the norm of the test charge is              1.0000)
       1 -47.1799       2 -95.0344       3 -95.0344
 
 
 
 E-fermi :  -3.7472     XC(G=0):  -2.5024     alpha+bet : -2.3217


 k-point     1 :       0.0000    0.0000    0.0000
  band No.  band energies     occupation 
      1     -17.7766      2.00000
      2     -16.5700      2.00000
      3      -9.2957      2.00000
      4      -6.3324      2.00000
      5      -6.3324      2.00000
      6      -5.4791      2.00000
      7      -5.2257      2.00000
      8      -5.2257      2.00000
      9      -3.7501      2.00000
     10      -0.9797      0.00000
     11      -0.9797      0.00000
     12      -0.7588      0.00000
     13      -0.7588      0.00000
     14       1.6658      0.00000

 k-point     2 :       0.2500   -0.0000    0.0000
  band No.  band energies     occupation 
      1     -16.9941      2.00000
      2     -16.1986      2.00000
      3      -8.6849      2.00000
      4      -7.5241      2.00000
      5      -7.2619      2.00000
      6      -6.1968      2.00000
      7      -5.5120      2.00000
      8      -5.0519      2.00000
      9      -4.4558      2.00000
     10      -1.5844      0.00000
     11      -1.4086      0.00000
     12      -0.8645      0.00000
     13      -0.0077      0.00000
     14       2.8520      0.00000

 k-point     3 :       0.5000   -0.0000    0.0000
  band No.  band energies     occupation 
      1     -15.9912      2.00000
      2     -15.7466      2.00000
      3      -9.4539      2.00000
      4      -8.4946      2.00000
      5      -7.7846      2.00000
      6      -6.8748      2.00000
      7      -5.5995      2.00000
      8      -4.6966      2.00000
      9      -4.3714      2.00000
     10      -1.5650      0.00000
     11      -1.0462      0.00000
     12       0.1515      0.00000
     13       0.5010      0.00000
     14       2.4276      0.00000

 k-point     4 :       0.2500    0.2500    0.0000
  band No.  band energies     occupation 
      1     -16.0214      2.00000
      2     -15.7287      2.00000
      3      -8.8060      2.00000
      4      -8.6005      2.00000
      5      -7.3319      2.00000
      6      -6.9487      2.00000
      7      -6.6278      2.00000
      8      -5.3754      2.00000
      9      -4.2454      2.00000
     10      -1.5954      0.00000
     11      -0.9869      0.00000
     12      -0.6752      0.00000
     13       0.8001      0.00000
     14       3.7852      0.00000


--------------------------------------------------------------------------------------------------------


 soft charge-density along one line, spin component           1
         0         1         2         3         4         5         6         7         8         9
 total charge-density along one line
 
 pseudopotential strength for first ion, spin component:           1
-10.070  -0.000   0.000   0.000   0.000   0.111   0.000  -0.000
 -0.000 -10.068  -0.000  -0.000   0.000   0.000   0.110   0.000
  0.000  -0.000 -10.046  -0.000  -0.000  -0.000   0.000   0.109
  0.000  -0.000  -0.000 -10.068  -0.000  -0.000   0.000   0.000
  0.000   0.000  -0.000  -0.000 -10.070  -0.000  -0.000   0.000
  0.111   0.000  -0.000  -0.000  -0.000   0.097  -0.000   0.000
  0.000   0.110   0.000   0.000  -0.000  -0.000   0.097  -0.000
 -0.000   0.000   0.109   0.000   0.000   0.000  -0.000   0.097
 -0.000   0.000   0.000   0.110   0.000  -0.000  -0.000  -0.000
 -0.000  -0.000   0.000   0.000   0.111   0.000   0.000  -0.000
  0.000   0.000  -0.005   0.000  -0.000  -0.000  -0.000   0.000
 -0.000  -0.000   0.001  -0.000   0.000   0.000   0.000  -0.000
 -0.000   0.000  -0.000  -0.000  -0.007   0.000  -0.000   0.000
 -0.000   0.000   0.000  -0.000   0.000  -0.000  -0.000  -0.000
 -0.007  -0.000   0.000   0.000  -0.000  -0.000  -0.000  -0.000
  0.000  -0.000   0.000   0.000   0.004  -0.000   0.000  -0.000
  0.000  -0.000  -0.000   0.000  -0.000  -0.000   0.000   0.000
  0.004   0.000  -0.000  -0.000   0.000   0.000  -0.000   0.000
 total augmentation occupancy for first ion, spin component:           1
  0.962   0.000  -0.000   0.000  -0.000   0.605   0.000  -0.000   0.000  -0.000   0.000   0.000   0.000  -0.000  -0.066  -0.000
 -0.000   0.910   0.000   0.000   0.000   0.000   0.839   0.000   0.000  -0.000   0.000   0.000   0.000  -0.000   0.000  -0.000
 -0.000  -0.000   1.035   0.000   0.000  -0.000   0.000   0.503   0.000   0.000   0.103  -0.021  -0.000  -0.000   0.000   0.000
  0.000   0.000   0.000   0.910  -0.000   0.000   0.000  -0.000   0.839   0.000   0.000   0.000  -0.000   0.000   0.000   0.000
 -0.000   0.000   0.000   0.000   0.962  -0.000  -0.000   0.000   0.000   0.605   0.000  -0.000  -0.066   0.000  -0.000   0.007
  0.605   0.000  -0.000  -0.000  -0.000   0.677   0.000  -0.000  -0.000  -0.000   0.000  -0.000   0.000   0.000  -0.136  -0.000
  0.000   0.839   0.000   0.000   0.000   0.000   1.081   0.000   0.000   0.000   0.000   0.000   0.000   0.000  -0.000  -0.000
 -0.000   0.000   0.503   0.000   0.000  -0.000   0.000   0.476   0.000   0.000   0.058  -0.022  -0.000  -0.000   0.000   0.000
 -0.000   0.000  -0.000   0.839  -0.000   0.000   0.000   0.000   1.081   0.000   0.000  -0.000   0.000  -0.000   0.000   0.000
 -0.000   0.000   0.000   0.000   0.605  -0.000   0.000   0.000   0.000   0.677   0.000  -0.000  -0.136   0.000  -0.000   0.023
  0.000   0.000   0.103   0.000   0.000   0.000   0.000   0.058   0.000   0.000   1.207  -0.186   0.000   0.000   0.000  -0.000
  0.000   0.000  -0.021   0.000  -0.000  -0.000   0.000  -0.022   0.000  -0.000  -0.186   0.042   0.000  -0.000   0.000   0.000
  0.000   0.000  -0.000   0.000  -0.066   0.000   0.000  -0.000   0.000  -0.136   0.000   0.000   0.216   0.000   0.000  -0.032
 -0.000   0.000  -0.000  -0.000   0.000   0.000   0.000   0.000  -0.000   0.000  -0.000   0.000   0.000   0.262   0.000   0.000
 -0.066   0.000   0.000  -0.000  -0.000  -0.136  -0.000   0.000   0.000  -0.000   0.000   0.000   0.000   0.000   0.216  -0.000
 -0.000   0.000   0.000   0.000   0.007  -0.000  -0.000   0.000   0.000   0.023  -0.000   0.000  -0.032   0.000  -0.000   0.005
  0.000   0.000  -0.000  -0.000   0.000   0.000   0.000   0.000   0.000   0.000   0.000   0.000   0.000  -0.038   0.000   0.000
  0.007   0.000  -0.000   0.000   0.000   0.023  -0.000  -0.000   0.000   0.000   0.000   0.000  -0.000   0.000  -0.032   0.000


------------------------ aborting loop because EDIFF is reached ----------------------------------------


    CHARGE:  cpu time    0.0150: real time    0.0142
    FORLOC:  cpu time    0.0040: real time    0.0046
    FORNL :  cpu time    0.0190: real time    0.0187
    STRESS:  cpu time    0.0930: real time    0.0938
    FORCOR:  cpu time    0.0540: real time    0.0528
    FORHAR:  cpu time    0.0120: real time    0.0124
    MIXING:  cpu time    0.0020: real time    0.0027
    OFIELD:  cpu time    0.0000: real time    0.0000

  DFT-D2 method for vdW energy calculation
  -------------------------------------------------------------------

  Parameters of vdW forcefield:
         C6(Jnm^6/mol)     R0(A)
   -----------------------------
   Mo      24.670          1.639
   S        5.570          1.683

  IVDW =   1
  VDW_RADIUS =    50.000 A
  VDW_S6 =     0.750
  VDW_SR =     1.000
  VDW_D =    20.000
  LVDW_EWALD = F

  Number of pair interactions contributing to vdW energy:   11979
  Edisp (eV):   -0.59080
    FORVDW:  cpu time    0.0110: real time    0.0156

  FORCE on cell =-STRESS in cart. coord.  units (eV):
  Direction    XX          YY          ZZ          XY          YZ          ZX
  --------------------------------------------------------------------------------------
  Alpha Z    10.89288    10.89288    10.89288
  Ewald    5935.52296  5935.52341 -6502.38985     0.00019     0.00000     0.00012
  Hartree  6017.65749  6017.65750 -5979.43552     0.00002    -0.00000    -0.00000
  E(xc)     -70.28637   -70.28637   -70.91023    -0.00000    -0.00000    -0.00000
  Local  -12232.29706-12232.29740 12196.92061    -0.00021    -0.00000    -0.00006
  n-local   127.28796   125.59023   131.42696    -0.10041     0.00000    -0.00001
  augment   -25.60934   -25.60926   -26.62764     0.00007     0.00000    -0.00000
  Kinetic   236.91587   237.58088   239.79646    -7.35630     0.00001     0.00002
  Fock        0.00000     0.00000     0.00000     0.00000     0.00000     0.00000
  vdW         0.16052     0.16052    -0.13380     0.00000     0.00000    -0.00000
  -------------------------------------------------------------------------------------
  Total      -0.27134    -0.27134    -0.46014     0.00000     0.00000     0.00000
  in kB      -1.59724    -1.59724    -2.70858     0.00000     0.00000     0.00000
  external pressure =       -1.97 kB  Pullay stress =        0.00 kB


 VOLUME and BASIS-vectors are now :
 -----------------------------------------------------------------------------
  energy-cutoff  :      450.00
  volume of cell :      272.18
      direct lattice vectors                 reciprocal lattice vectors
     3.190315730  0.000000000  0.000000000     0.313448600  0.180969634  0.000000000
    -1.595157865  2.762894468  0.000000000     0.000000000  0.361939267  0.000000000
     0.000000000  0.000000000 30.879004300     0.000000000  0.000000000  0.032384464

  length of vectors
     3.190315730  3.190315730 30.879004300     0.361939267  0.361939267  0.032384464


 FORCES acting on ions
    electron-ion (+dipol)            ewald-force                    non-local-force                 convergence-correction
 -----------------------------------------------------------------------------------------------
   -.957E-05 -.168E-05 -.102E-04   0.931E-04 -.108E-03 0.343E-06   0.173E-17 -.347E-17 -.169E-20   0.346E-09 -.516E-09 0.837E-07
   -.853E-03 0.494E-03 0.596E+03   -.864E-04 0.538E-04 -.601E+03   -.382E-16 0.000E+00 0.480E+01   -.702E-08 0.331E-08 0.253E-02
   0.864E-03 0.494E-03 -.596E+03   -.674E-05 0.538E-04 0.601E+03   -.104E-16 0.000E+00 -.480E+01   0.801E-08 0.331E-08 -.253E-02
 -----------------------------------------------------------------------------------------------
   0.206E-05 0.986E-03 0.210E-04   0.253E-13 0.199E-13 0.000E+00   -.468E-16 -.347E-17 0.888E-15   0.134E-08 0.610E-08 0.220E-06
 
 
 POSITION                                       TOTAL-FORCE (eV/Angst)
 -----------------------------------------------------------------------------------
     -0.00000      1.84193      3.71975         0.000000     -0.000000      0.000000
      1.59516      0.92096      2.15487        -0.000000      0.000000      0.140825
      1.59516      0.92096      5.28464        -0.000000      0.000000     -0.140825
 -----------------------------------------------------------------------------------
    total drift:                                0.000002      0.000986      0.000021


--------------------------------------------------------------------------------------------------------



  FREE ENERGIE OF THE ION-ELECTRON SYSTEM (eV)
  ---------------------------------------------------
  free  energy   TOTEN  =       -22.44157182 eV

  energy  without entropy=      -22.44157182  energy(sigma->0) =      -22.44157182
 


--------------------------------------------------------------------------------------------------------


    POTLOK:  cpu time    0.0500: real time    0.0496


--------------------------------------------------------------------------------------------------------


     LOOP+:  cpu time    3.4525: real time    3.5733
    4ORBIT:  cpu time    0.0000: real time    0.0000
 BZINTS: Fermi energy: -3.747241; 18.000000 electrons
         Band energy:-157.302763;  BLOECHL correction:  0.000000

 total amount of memory used by VASP MPI-rank0    46164. kBytes
=======================================================================

   base      :      30000. kBytes
   nonl-proj :       3602. kBytes
   fftplans  :       4304. kBytes
   grid      :       6871. kBytes
   one-center:         31. kBytes
   wavefun   :       1356. kBytes
 
  
  
 General timing and accounting informations for this job:
 ========================================================
  
                  Total CPU time used (sec):        4.510
                            User time (sec):        4.321
                          System time (sec):        0.189
                         Elapsed time (sec):        4.983
  
                   Maximum memory used (kb):       42496.
                   Average memory used (kb):           0.
  
                          Minor page faults:        12162
                          Major page faults:           67
                 Voluntary context switches:         2058
