perl: warning: Setting locale failed.
perl: warning: Please check that your locale settings:
	LANGUAGE = (unset),
	LC_ALL = (unset),
	LC_CTYPE = "UTF-8",
	LANG = "en_US.iso885915"
    are supported and installed on your system.
perl: warning: Falling back to the standard locale ("C").
Starting job 28531323 ("jobname") on c16-9 at Fri Nov 8 09:49:45 CET 2019
 running on    4 total cores
 distrk:  each k-point on    4 cores,    1 groups
 distr:  one band on    2 cores,    2 groups
 using from now: INCAR     
 vasp.5.4.4.18Apr17-6-g9f103f2a35 (build Jun 30 2017 11:15:00) complex          
  
 POSCAR found type information on POSCAR  Mo S 
 POSCAR found :  2 types and       6 ions
 scaLAPACK will be used
 LDA part: xc-table for Pade appr. of Perdew
 POSCAR, INCAR and KPOINTS ok, starting setup
 FFT: planning ...
 WAVECAR not read
 entering main loop
       N       E                     dE             d eps       ncg     rms          rms(c)
DAV:   1     0.284512204200E+03    0.28451E+03   -0.16246E+04   176   0.158E+03
DAV:   2    -0.155586098800E+02   -0.30007E+03   -0.29347E+03   246   0.275E+02
DAV:   3    -0.456926048290E+02   -0.30134E+02   -0.29958E+02   220   0.938E+01
DAV:   4    -0.468624698127E+02   -0.11699E+01   -0.11651E+01   242   0.200E+01
DAV:   5    -0.468982101782E+02   -0.35740E-01   -0.35735E-01   246   0.328E+00    0.967E+00
RMM:   6    -0.445171106056E+02    0.23811E+01   -0.23233E+01   197   0.194E+01    0.332E+00
RMM:   7    -0.438018282524E+02    0.71528E+00   -0.20191E+00   193   0.568E+00    0.177E+00
RMM:   8    -0.437390766803E+02    0.62752E-01   -0.81631E-01   206   0.331E+00    0.799E-01
RMM:   9    -0.437245260656E+02    0.14551E-01   -0.24009E-01   219   0.211E+00    0.489E-01
RMM:  10    -0.437119411783E+02    0.12585E-01   -0.36642E-02   215   0.907E-01    0.520E-02
RMM:  11    -0.437121146022E+02   -0.17342E-03   -0.46886E-03   242   0.222E-01    0.405E-02
RMM:  12    -0.437120158125E+02    0.98790E-04   -0.10444E-03   211   0.159E-01    0.272E-02
RMM:  13    -0.437120282936E+02   -0.12481E-04   -0.10864E-04   189   0.416E-02    0.152E-02
RMM:  14    -0.437121543182E+02   -0.12602E-03   -0.22926E-04   222   0.681E-02    0.217E-02
RMM:  15    -0.437121474543E+02    0.68639E-05   -0.78977E-05   197   0.435E-02
 Error reading item 'IVDW' from file INCAR
   1 F= -.43712147E+02 E0= -.43712147E+02  d E =0.000000E+00

Currently Loaded Modulefiles:
  1) Anaconda3/5.1.0       3) vesta/3.3.8           5) intel/2016.1
  2) gnuplot/5.0.4         4) imagemagick/6.7.9-0   6) vasp/5.4.1.Feb16

Job script resource usage:
       JobID  MaxVMSize     MaxRSS 
------------ ---------- ---------- 
28531323.ba+    216888K      2288K 

Job step resource usage:
       JobID    JobName  AllocCPUS  MaxVMSize     MaxRSS    Elapsed ExitCode 
------------ ---------- ---------- ---------- ---------- ---------- -------- 
28531323        jobname          4                         00:00:12      0:0 
28531323.0    pmi_proxy          1    279832K       518K   00:00:10      0:0 

Job 28531323 ("jobname") completed on c16-9 at Fri Nov 8 09:49:55 CET 2019
