perl: warning: Setting locale failed.
perl: warning: Please check that your locale settings:
	LANGUAGE = (unset),
	LC_ALL = (unset),
	LC_CTYPE = "UTF-8",
	LANG = "en_US.iso885915"
    are supported and installed on your system.
perl: warning: Falling back to the standard locale ("C").
Starting job 28532151 ("jobname") on c18-8 at Fri Nov 8 11:19:06 CET 2019
 running on    4 total cores
 distrk:  each k-point on    4 cores,    1 groups
 distr:  one band on    2 cores,    2 groups
 using from now: INCAR     
 vasp.5.4.4.18Apr17-6-g9f103f2a35 (build Jun 30 2017 11:15:00) complex          
  
 POSCAR found type information on POSCAR  Mo S 
 POSCAR found :  2 types and       3 ions
 scaLAPACK will be used
 LDA part: xc-table for Pade appr. of Perdew
 POSCAR, INCAR and KPOINTS ok, starting setup
 FFT: planning ...
 WAVECAR not read
 WARNING: random wavefunctions but no delay for mixing, default for NELMDL
 entering main loop
       N       E                     dE             d eps       ncg     rms          rms(c)
  WARNING: DENTET: can't reach specified precision
  Number of Electrons is NELECT =   17.9003462351252     
DAV:   1     0.150479015290E+03    0.15048E+03   -0.62652E+03   112   0.107E+03
DAV:   2    -0.381169722771E+01   -0.15429E+03   -0.14575E+03   202   0.177E+02
DAV:   3    -0.230274678079E+02   -0.19216E+02   -0.19000E+02   156   0.791E+01
DAV:   4    -0.234379574232E+02   -0.41049E+00   -0.40829E+00   148   0.144E+01
DAV:   5    -0.234483086893E+02   -0.10351E-01   -0.10349E-01   150   0.223E+00    0.685E+00
RMM:   6    -0.222844480179E+02    0.11639E+01   -0.52914E+00   117   0.123E+01    0.254E+00
RMM:   7    -0.219163492607E+02    0.36810E+00   -0.52910E-01   116   0.331E+00    0.146E+00
RMM:   8    -0.218585978356E+02    0.57751E-01   -0.22797E-01   121   0.248E+00    0.351E-01
RMM:   9    -0.218537725968E+02    0.48252E-02   -0.92967E-03   133   0.621E-01    0.102E-01
RMM:  10    -0.218528926702E+02    0.87993E-03   -0.16268E-03   133   0.221E-01    0.464E-02
RMM:  11    -0.218528102690E+02    0.82401E-04   -0.16919E-03   125   0.197E-01    0.575E-02
RMM:  12    -0.218526409474E+02    0.16932E-03   -0.56628E-04   122   0.135E-01    0.197E-02
RMM:  13    -0.218529734620E+02   -0.33251E-03   -0.17855E-04   116   0.756E-02    0.203E-02
RMM:  14    -0.218530431589E+02   -0.69697E-04   -0.30397E-05   105   0.287E-02    0.567E-03
RMM:  15    -0.218531734983E+02   -0.13034E-03   -0.14171E-05    73   0.194E-02    0.282E-03
RMM:  16    -0.218532160931E+02   -0.42595E-04   -0.30656E-06    74   0.938E-03    0.182E-03
RMM:  17    -0.218532438149E+02   -0.27722E-04   -0.21915E-06    54   0.668E-03    0.932E-04
RMM:  18    -0.218532504858E+02   -0.66709E-05   -0.41465E-07    34   0.392E-03
 Error reading item 'IVDW' from file INCAR
   1 F= -.21853250E+02 E0= -.21853250E+02  d E =0.000000E+00

Currently Loaded Modulefiles:
  1) Anaconda3/5.1.0       3) vesta/3.3.8           5) intel/2016.1
  2) gnuplot/5.0.4         4) imagemagick/6.7.9-0   6) vasp/5.4.1.Feb16

Job script resource usage:
       JobID  MaxVMSize     MaxRSS 
------------ ---------- ---------- 
28532151.ba+    216888K      2370K 

Job step resource usage:
       JobID    JobName  AllocCPUS  MaxVMSize     MaxRSS    Elapsed ExitCode 
------------ ---------- ---------- ---------- ---------- ---------- -------- 
28532151        jobname          4                         00:00:10      0:0 
28532151.0    pmi_proxy          1    279832K       522K   00:00:09      0:0 

Job 28532151 ("jobname") completed on c18-8 at Fri Nov 8 11:19:15 CET 2019
