<?xml version="1.0" encoding="ISO-8859-1"?>
<modeling>
 <generator>
  <i name="program" type="string">vasp </i>
  <i name="version" type="string">5.4.4.18Apr17-6-g9f103f2a35  </i>
  <i name="subversion" type="string">(build Jun 30 2017 11:15:00) complex            parallel </i>
  <i name="platform" type="string">STALLO_VASP_5.4.4 </i>
  <i name="date" type="string">2019 11 08 </i>
  <i name="time" type="string">12:20:45 </i>
 </generator>
 <incar>
  <i type="string" name="PREC">normal    ! low/normal/accurate</i>
  <i type="string" name="ALGO"> Fast      ! Algorithm for electronic re</i>
  <i type="int" name="ISPIN">     1</i>
  <i type="int" name="NELMIN">     4</i>
  <i name="EDIFF">      0.00001000</i>
  <i type="int" name="NSW">     0</i>
  <i name="ENCUT">    450.00000000</i>
  <i type="logical" name="LREAL"> F  </i>
  <i type="int" name="ISMEAR">    -5</i>
  <i name="SIGMA">      0.20000000</i>
  <i type="logical" name="LWAVE"> F  </i>
  <v type="int" name="KPOINT_BSE">    -1     0     0     0</v>
 </incar>
 <structure name="primitive_cell" >
  <crystal>
   <varray name="basis" >
    <v>       3.19031573       0.00000000       0.00000000 </v>
    <v>      -1.59515786       2.76289447       0.00000000 </v>
    <v>       0.00000000       0.00000000      30.87900430 </v>
   </varray>
   <i name="volume">    272.18315887 </i>
   <varray name="rec_basis" >
    <v>       0.31344860       0.18096963       0.00000000 </v>
    <v>       0.00000000       0.36193927       0.00000000 </v>
    <v>       0.00000000       0.00000000       0.03238446 </v>
   </varray>
  </crystal>
  <varray name="positions" >
   <v>       0.33333300      -0.33333300       0.12046214 </v>
   <v>      -0.33333400       0.33333300       0.17114009 </v>
   <v>      -0.33333300       0.33333300       0.06978420 </v>
  </varray>
 </structure>
 <varray name="primitive_index" >
  <v type="int" >        1 </v>
  <v type="int" >        3 </v>
  <v type="int" >        2 </v>
 </varray>
 <kpoints>
  <generation param="Gamma">
   <v type="int" name="divisions">       4        4        1 </v>
   <v name="usershift">      0.00000000       0.00000000       0.00000000 </v>
   <v name="genvec1">      0.25000000       0.00000000       0.00000000 </v>
   <v name="genvec2">      0.00000000       0.25000000       0.00000000 </v>
   <v name="genvec3">      0.00000000       0.00000000       1.00000000 </v>
   <v name="shift">      0.00000000       0.00000000       0.00000000 </v>
  </generation>
  <varray name="kpointlist" >
   <v>       0.00000000       0.00000000       0.00000000 </v>
   <v>       0.25000000      -0.00000000       0.00000000 </v>
   <v>       0.50000000      -0.00000000       0.00000000 </v>
   <v>       0.25000000       0.25000000       0.00000000 </v>
  </varray>
  <varray name="weights" >
   <v>       0.06250000 </v>
   <v>       0.37500000 </v>
   <v>       0.18750000 </v>
   <v>       0.37500000 </v>
  </varray>
  <varray name="tetrahedronlist"  type="int" >
   <v type="int" >       12        2        2        2        4 </v>
   <v type="int" >       12        1        2        2        2 </v>
   <v type="int" >        6        1        1        2        2 </v>
   <v type="int" >        6        2        2        4        4 </v>
   <v type="int" >       12        3        4        4        4 </v>
   <v type="int" >       12        2        3        4        4 </v>
   <v type="int" >       12        2        2        3        4 </v>
   <v type="int" >        6        3        3        4        4 </v>
   <v type="int" >       12        2        3        3        4 </v>
   <v type="int" >        6        4        4        4        4 </v>
  </varray>
  <i name="volumeweight">      0.01041667 </i>
 </kpoints>
 <parameters>
  <separator name="general" >
   <i type="string" name="SYSTEM">unknown system</i>
   <i type="logical" name="LCOMPAT"> F  </i>
  </separator>
  <separator name="electronic" >
   <i type="string" name="PREC">normal</i>
   <i name="ENMAX">    450.00000000</i>
   <i name="ENAUG">    345.27800000</i>
   <i name="EDIFF">      0.00001000</i>
   <i type="int" name="IALGO">    68</i>
   <i type="int" name="IWAVPR">    10</i>
   <i type="int" name="NBANDS">    14</i>
   <i name="NELECT">     18.00000000</i>
   <i type="int" name="TURBO">     0</i>
   <i type="int" name="IRESTART">     0</i>
   <i type="int" name="NREBOOT">     0</i>
   <i type="int" name="NMIN">     0</i>
   <i name="EREF">      0.00000000</i>
   <separator name="electronic smearing" >
    <i type="int" name="ISMEAR">    -5</i>
    <i name="SIGMA">      0.20000000</i>
    <i name="KSPACING">      0.50000000</i>
    <i type="logical" name="KGAMMA"> T  </i>
   </separator>
   <separator name="electronic projectors" >
    <i type="logical" name="LREAL"> F  </i>
    <v name="ROPT">      0.00000000      0.00000000</v>
    <i type="int" name="LMAXPAW">  -100</i>
    <i type="int" name="LMAXMIX">     2</i>
    <i type="logical" name="NLSPLINE"> F  </i>
   </separator>
   <separator name="electronic startup" >
    <i type="int" name="ISTART">     0</i>
    <i type="int" name="ICHARG">     2</i>
    <i type="int" name="INIWAV">     1</i>
   </separator>
   <separator name="electronic spin" >
    <i type="int" name="ISPIN">     1</i>
    <i type="logical" name="LNONCOLLINEAR"> F  </i>
    <v name="MAGMOM">      1.00000000      1.00000000      1.00000000</v>
    <i name="NUPDOWN">     -1.00000000</i>
    <i type="logical" name="LSORBIT"> F  </i>
    <v name="SAXIS">      0.00000000      0.00000000      1.00000000</v>
    <i type="logical" name="LSPIRAL"> F  </i>
    <v name="QSPIRAL">      0.00000000      0.00000000      0.00000000</v>
    <i type="logical" name="LZEROZ"> F  </i>
   </separator>
   <separator name="electronic exchange-correlation" >
    <i type="logical" name="LASPH"> F  </i>
    <i type="logical" name="LMETAGGA"> F  </i>
   </separator>
   <separator name="electronic convergence" >
    <i type="int" name="NELM">    60</i>
    <i type="int" name="NELMDL">     0</i>
    <i type="int" name="NELMIN">     4</i>
    <i name="ENINI">    450.00000000</i>
    <separator name="electronic convergence detail" >
     <i type="logical" name="LDIAG"> T  </i>
     <i type="logical" name="LSUBROT"> F  </i>
     <i name="WEIMIN">      0.00000000</i>
     <i name="EBREAK">      0.00000018</i>
     <i name="DEPER">      0.30000000</i>
     <i type="int" name="NRMM">     4</i>
     <i name="TIME">      0.40000000</i>
    </separator>
   </separator>
   <separator name="electronic mixer" >
    <i name="AMIX">      0.40000000</i>
    <i name="BMIX">      1.00000000</i>
    <i name="AMIN">      0.10000000</i>
    <i name="AMIX_MAG">      1.60000000</i>
    <i name="BMIX_MAG">      1.00000000</i>
    <separator name="electronic mixer details" >
     <i type="int" name="IMIX">     4</i>
     <i type="logical" name="MIXFIRST"> F  </i>
     <i type="int" name="MAXMIX">   -45</i>
     <i name="WC">    100.00000000</i>
     <i type="int" name="INIMIX">     1</i>
     <i type="int" name="MIXPRE">     1</i>
     <i type="int" name="MREMOVE">     5</i>
    </separator>
   </separator>
   <separator name="electronic dipolcorrection" >
    <i type="logical" name="LDIPOL"> F  </i>
    <i type="logical" name="LMONO"> F  </i>
    <i type="int" name="IDIPOL">     0</i>
    <i name="EPSILON">      1.00000000</i>
    <v name="DIPOL">   -100.00000000   -100.00000000   -100.00000000</v>
    <i name="EFIELD">      0.00000000</i>
   </separator>
  </separator>
  <separator name="grids" >
   <i type="int" name="NGX">    18</i>
   <i type="int" name="NGY">    18</i>
   <i type="int" name="NGZ">   160</i>
   <i type="int" name="NGXF">    36</i>
   <i type="int" name="NGYF">    36</i>
   <i type="int" name="NGZF">   320</i>
   <i type="logical" name="ADDGRID"> F  </i>
  </separator>
  <separator name="ionic" >
   <i type="int" name="NSW">     0</i>
   <i type="int" name="IBRION">    -1</i>
   <i type="int" name="MDALGO">     0</i>
   <i type="int" name="ISIF">     2</i>
   <i name="PSTRESS">      0.00000000</i>
   <i name="EDIFFG">      0.00010000</i>
   <i type="int" name="NFREE">     0</i>
   <i name="POTIM">      0.50000000</i>
   <i name="SMASS">     -3.00000000</i>
   <i name="SCALEE">      1.00000000</i>
  </separator>
  <separator name="ionic md" >
   <i name="TEBEG">      0.00010000</i>
   <i name="TEEND">      0.00010000</i>
   <i type="int" name="NBLOCK">     1</i>
   <i type="int" name="KBLOCK">     1</i>
   <i type="int" name="NPACO">   256</i>
   <i name="APACO">     16.00000000</i>
  </separator>
  <separator name="symmetry" >
   <i type="int" name="ISYM">     2</i>
   <i name="SYMPREC">      0.00001000</i>
  </separator>
  <separator name="dos" >
   <i type="int" name="LORBIT">     0</i>
   <v name="RWIGS">     -1.00000000     -1.00000000</v>
   <i type="int" name="NEDOS">   301</i>
   <i name="EMIN">     10.00000000</i>
   <i name="EMAX">    -10.00000000</i>
   <i name="EFERMI">      0.00000000</i>
  </separator>
  <separator name="writing" >
   <i type="int" name="NWRITE">     2</i>
   <i type="logical" name="LWAVE"> F  </i>
   <i type="logical" name="LDOWNSAMPLE"> F  </i>
   <i type="logical" name="LCHARG"> T  </i>
   <i type="logical" name="LPARD"> F  </i>
   <i type="logical" name="LVTOT"> F  </i>
   <i type="logical" name="LVHAR"> F  </i>
   <i type="logical" name="LELF"> F  </i>
   <i type="logical" name="LOPTICS"> F  </i>
   <v name="STM">      0.00000000      0.00000000      0.00000000      0.00000000      0.00000000      0.00000000      0.00000000</v>
  </separator>
  <separator name="performance" >
   <i type="int" name="NPAR">     2</i>
   <i type="int" name="NSIM">     4</i>
   <i type="int" name="NBLK">    -1</i>
   <i type="logical" name="LPLANE"> T  </i>
   <i type="logical" name="LSCALAPACK"> T  </i>
   <i type="logical" name="LSCAAWARE"> F  </i>
   <i type="logical" name="LSCALU"> F  </i>
   <i type="logical" name="LASYNC"> F  </i>
   <i type="logical" name="LORBITALREAL"> F  </i>
  </separator>
  <separator name="miscellaneous" >
   <i type="int" name="IDIOT">     3</i>
   <i type="int" name="ISPECIAL">     0</i>
   <i type="logical" name="LMUSIC"> F  </i>
   <v name="POMASS">     95.94000000     32.06600000</v>
   <v name="DARWINR">      0.00000000      0.00000000</v>
   <v name="DARWINV">      1.00000000      1.00000000</v>
   <i type="logical" name="LCORR"> T  </i>
  </separator>
  <i type="logical" name="GGA_COMPAT"> T  </i>
  <i type="logical" name="LBERRY"> F  </i>
  <i type="int" name="ICORELEVEL">     0</i>
  <i type="logical" name="LDAU"> F  </i>
  <i type="int" name="I_CONSTRAINED_M">     0</i>
  <separator name="electronic exchange-correlation" >
   <i type="string" name="GGA">--</i>
   <i type="int" name="VOSKOWN">     0</i>
   <i type="logical" name="LHFCALC"> F  </i>
   <i type="string" name="PRECFOCK"></i>
   <i type="logical" name="LSYMGRAD"> F  </i>
   <i type="logical" name="LHFONE"> F  </i>
   <i type="logical" name="LRHFCALC"> F  </i>
   <i type="logical" name="LTHOMAS"> F  </i>
   <i type="logical" name="LMODELHF"> F  </i>
   <i name="ENCUT4O">     -1.00000000</i>
   <i type="int" name="EXXOEP">     0</i>
   <i type="int" name="FOURORBIT">     0</i>
   <i name="AEXX">      0.00000000</i>
   <i name="HFALPHA">      0.00000000</i>
   <i name="MCALPHA">      0.00000000</i>
   <i name="ALDAX">      1.00000000</i>
   <i name="AGGAX">      1.00000000</i>
   <i name="ALDAC">      1.00000000</i>
   <i name="AGGAC">      1.00000000</i>
   <i type="int" name="NKREDX">     1</i>
   <i type="int" name="NKREDY">     1</i>
   <i type="int" name="NKREDZ">     1</i>
   <i type="logical" name="SHIFTRED"> F  </i>
   <i type="logical" name="ODDONLY"> F  </i>
   <i type="logical" name="EVENONLY"> F  </i>
   <i type="int" name="LMAXFOCK">     0</i>
   <i type="int" name="NMAXFOCKAE">     0</i>
   <i type="logical" name="LFOCKAEDFT"> F  </i>
   <i name="HFSCREEN">      0.00000000</i>
   <i name="HFSCREENC">      0.00000000</i>
   <i type="int" name="NBANDSGWLOW">     0</i>
  </separator>
  <separator name="vdW DFT" >
   <i type="logical" name="LUSE_VDW"> F  </i>
   <i name="Zab_VDW">     -0.84910000</i>
   <i name="PARAM1">      0.12340000</i>
   <i name="PARAM2">      1.00000000</i>
   <i name="PARAM3">      0.00000000</i>
  </separator>
  <separator name="model GW" >
   <i type="int" name="MODEL_GW">     0</i>
   <i name="MODEL_EPS0">     54.43663177</i>
   <i name="MODEL_ALPHA">      1.00000000</i>
  </separator>
  <separator name="linear response parameters" >
   <i type="logical" name="LEPSILON"> F  </i>
   <i type="logical" name="LRPA"> F  </i>
   <i type="logical" name="LNABLA"> F  </i>
   <i type="logical" name="LVEL"> F  </i>
   <i type="int" name="KINTER">     0</i>
   <i name="CSHIFT">      0.10000000</i>
   <i name="OMEGAMAX">     -1.00000000</i>
   <i name="DEG_THRESHOLD">      0.00200000</i>
   <i name="RTIME">     -0.10000000</i>
   <i name="WPLASMAI">      0.00000000</i>
   <v name="DFIELD">      0.00000000      0.00000000      0.00000000</v>
   <v name="WPLASMA">      0.00000000      0.00000000      0.00000000      0.00000000      0.00000000      0.00000000      0.00000000      0.00000000      0.00000000</v>
  </separator>
  <separator name="orbital magnetization" >
   <i type="logical" name="NUCIND"> F  </i>
   <v name="MAGPOS">      0.00000000      0.00000000      0.00000000</v>
   <i type="logical" name="LNICSALL"> T  </i>
   <i type="logical" name="ORBITALMAG"> F  </i>
   <i type="logical" name="LMAGBLOCH"> F  </i>
   <i type="logical" name="LCHIMAG"> F  </i>
   <i type="logical" name="LGAUGE"> T  </i>
   <i type="int" name="MAGATOM">     0</i>
   <v name="MAGDIPOL">      0.00000000      0.00000000      0.00000000</v>
   <v name="AVECCONST">      0.00000000      0.00000000      0.00000000</v>
  </separator>
  <separator name="response functions" >
   <i type="logical" name="LADDER"> F  </i>
   <i type="logical" name="LRPAFORCE"> F  </i>
   <i type="logical" name="LFXC"> F  </i>
   <i type="logical" name="LHARTREE"> T  </i>
   <i type="int" name="IBSE">     0</i>
   <v type="int" name="KPOINT">    -1     0     0     0</v>
   <i type="logical" name="LTCTE"> F  </i>
   <i type="logical" name="LTETE"> F  </i>
   <i type="logical" name="LTRIPLET"> F  </i>
   <i type="logical" name="LFXCEPS"> F  </i>
   <i type="logical" name="LFXHEG"> F  </i>
   <i type="int" name="NATURALO">     2</i>
   <i type="logical" name="L2ORDER"> F  </i>
   <i type="logical" name="LMP2LT"> F  </i>
   <i type="logical" name="LUSEW"> F  </i>
   <i name="ENCUTGW">     -2.00000000</i>
   <i name="ENCUTGWSOFT">     -2.00000000</i>
   <i name="ENCUTLF">     -1.00000000</i>
   <i type="int" name="LMAXMP2">    -1</i>
   <i name="SCISSOR">      0.00000000</i>
   <i type="int" name="NOMEGA">     0</i>
   <i type="int" name="NOMEGAR">     0</i>
   <i type="int" name="NBANDSGW">    -1</i>
   <i type="int" name="NBANDSO">    -1</i>
   <i type="int" name="NBANDSV">    -1</i>
   <i type="int" name="NELM">     1</i>
   <i type="int" name="NELMHF">     1</i>
   <i type="int" name="DIM">     3</i>
   <i type="int" name="ANTIRES">     0</i>
   <i name="OMEGAMAX">    -30.00000000</i>
   <i name="OMEGAMIN">    -30.00000000</i>
   <i name="OMEGATL">   -200.00000000</i>
   <i type="int" name="OMEGAGRID">   140</i>
   <i name="CSHIFT">     -0.10000000</i>
   <i type="logical" name="SELFENERGY"> F  </i>
   <i type="logical" name="LSPECTRAL"> F  </i>
   <i type="logical" name="LSPECTRALGW"> F  </i>
   <i type="logical" name="LSINGLES"> F  </i>
   <i type="logical" name="LFERMIGW"> F  </i>
   <i type="logical" name="ODDONLYGW"> F  </i>
   <i type="logical" name="EVENONLYGW"> F  </i>
   <i type="int" name="NKREDLFX">     1</i>
   <i type="int" name="NKREDLFY">     1</i>
   <i type="int" name="NKREDLFZ">     1</i>
   <i type="int" name="MAXMEM">  2800</i>
   <i type="int" name="TELESCOPE">     0</i>
   <i type="int" name="TAUPAR">     1</i>
   <i type="int" name="OMEGAPAR">    -1</i>
   <i name="LAMBDA">      1.00000000</i>
  </separator>
  <separator name="External order field" >
   <i name="OFIELD_KAPPA">      0.00000000</i>
   <v name="OFIELD_K">      0.00000000      0.00000000      0.00000000</v>
   <i name="OFIELD_Q6_NEAR">      0.00000000</i>
   <i name="OFIELD_Q6_FAR">      0.00000000</i>
   <i name="OFIELD_A">      0.00000000</i>
  </separator>
 </parameters>
 <atominfo>
  <atoms>       3 </atoms>
  <types>       2 </types>
  <array name="atoms" >
   <dimension dim="1">ion</dimension>
   <field type="string">element</field>
   <field type="int">atomtype</field>
   <set>
    <rc><c>Mo</c><c>   1</c></rc>
    <rc><c>S </c><c>   2</c></rc>
    <rc><c>S </c><c>   2</c></rc>
   </set>
  </array>
  <array name="atomtypes" >
   <dimension dim="1">type</dimension>
   <field type="int">atomspertype</field>
   <field type="string">element</field>
   <field>mass</field>
   <field>valence</field>
   <field type="string">pseudopotential</field>
   <set>
    <rc><c>   1</c><c>Mo</c><c>     95.94000000</c><c>      6.00000000</c><c> PAW_PBE Mo 08Apr2002                   </c></rc>
    <rc><c>   2</c><c>S </c><c>     32.06600000</c><c>      6.00000000</c><c>  PAW_PBE S 17Jan2003                   </c></rc>
   </set>
  </array>
 </atominfo>
 <structure name="initialpos" >
  <crystal>
   <varray name="basis" >
    <v>       3.19031573       0.00000000       0.00000000 </v>
    <v>      -1.59515786       2.76289447       0.00000000 </v>
    <v>       0.00000000       0.00000000      30.87900430 </v>
   </varray>
   <i name="volume">    272.18315887 </i>
   <varray name="rec_basis" >
    <v>       0.31344860       0.18096963       0.00000000 </v>
    <v>       0.00000000       0.36193927       0.00000000 </v>
    <v>       0.00000000       0.00000000       0.03238446 </v>
   </varray>
  </crystal>
  <varray name="positions" >
   <v>       0.33333300       0.66666700       0.12046214 </v>
   <v>       0.66666700       0.33333300       0.06978420 </v>
   <v>       0.66666600       0.33333300       0.17114009 </v>
  </varray>
 </structure>
 <calculation>
  <scstep>
   <time name="dav">    0.10    0.11</time>
   <time name="total">    0.16    0.18</time>
   <energy>
    <i name="alphaZ">     10.89288288 </i>
    <i name="ewald">   5368.65661653 </i>
    <i name="hartreedc">  -6042.21104469 </i>
    <i name="XCdc">    -36.31053806 </i>
    <i name="pawpsdc">    406.88651198 </i>
    <i name="pawaedc">   -329.34073203 </i>
    <i name="eentropy">      0.00000000 </i>
    <i name="bandstr">    -13.30129199 </i>
    <i name="atom">    771.15511399 </i>
    <i name="e_fr_energy">    136.42751860 </i>
    <i name="e_wo_entrp">    136.42751860 </i>
    <i name="e_0_energy">    136.42751860 </i>
   </energy>
  </scstep>
  <scstep>
   <time name="dav">    0.15    0.15</time>
   <time name="total">    0.15    0.15</time>
   <energy>
    <i name="e_fr_energy">     -6.25129632 </i>
    <i name="e_wo_entrp">     -6.25129632 </i>
    <i name="e_0_energy">     -6.25129632 </i>
   </energy>
  </scstep>
  <scstep>
   <time name="dav">    0.12    0.12</time>
   <time name="total">    0.12    0.12</time>
   <energy>
    <i name="e_fr_energy">    -23.11110917 </i>
    <i name="e_wo_entrp">    -23.11110917 </i>
    <i name="e_0_energy">    -23.11110917 </i>
   </energy>
  </scstep>
  <scstep>
   <time name="dav">    0.12    0.12</time>
   <time name="total">    0.12    0.12</time>
   <energy>
    <i name="e_fr_energy">    -23.43850059 </i>
    <i name="e_wo_entrp">    -23.43850059 </i>
    <i name="e_0_energy">    -23.43850059 </i>
   </energy>
  </scstep>
  <scstep>
   <time name="dav">    0.12    0.12</time>
   <time name="total">    0.14    0.14</time>
   <energy>
    <i name="e_fr_energy">    -23.44624103 </i>
    <i name="e_wo_entrp">    -23.44624103 </i>
    <i name="e_0_energy">    -23.44624103 </i>
   </energy>
  </scstep>
  <scstep>
   <time name="diag">    0.02    0.02</time>
   <time name="diis">    0.08    0.08</time>
   <time name="orth">    0.00    0.00</time>
   <time name="total">    0.17    0.17</time>
   <energy>
    <i name="e_fr_energy">    -22.28296372 </i>
    <i name="e_wo_entrp">    -22.28296372 </i>
    <i name="e_0_energy">    -22.28296372 </i>
   </energy>
  </scstep>
  <scstep>
   <time name="diag">    0.02    0.02</time>
   <time name="diis">    0.08    0.08</time>
   <time name="orth">    0.00    0.00</time>
   <time name="total">    0.17    0.17</time>
   <energy>
    <i name="e_fr_energy">    -21.91397258 </i>
    <i name="e_wo_entrp">    -21.91397258 </i>
    <i name="e_0_energy">    -21.91397258 </i>
   </energy>
  </scstep>
  <scstep>
   <time name="diag">    0.02    0.02</time>
   <time name="diis">    0.08    0.08</time>
   <time name="orth">    0.00    0.00</time>
   <time name="total">    0.17    0.18</time>
   <energy>
    <i name="e_fr_energy">    -21.85611897 </i>
    <i name="e_wo_entrp">    -21.85611897 </i>
    <i name="e_0_energy">    -21.85611897 </i>
   </energy>
  </scstep>
  <scstep>
   <time name="diag">    0.02    0.02</time>
   <time name="diis">    0.09    0.09</time>
   <time name="orth">    0.00    0.00</time>
   <time name="total">    0.18    0.18</time>
   <energy>
    <i name="e_fr_energy">    -21.85129053 </i>
    <i name="e_wo_entrp">    -21.85129053 </i>
    <i name="e_0_energy">    -21.85129053 </i>
   </energy>
  </scstep>
  <scstep>
   <time name="diag">    0.02    0.02</time>
   <time name="diis">    0.09    0.09</time>
   <time name="orth">    0.00    0.00</time>
   <time name="total">    0.18    0.18</time>
   <energy>
    <i name="e_fr_energy">    -21.85040939 </i>
    <i name="e_wo_entrp">    -21.85040939 </i>
    <i name="e_0_energy">    -21.85040939 </i>
   </energy>
  </scstep>
  <scstep>
   <time name="diag">    0.02    0.02</time>
   <time name="diis">    0.09    0.09</time>
   <time name="orth">    0.00    0.00</time>
   <time name="total">    0.18    0.18</time>
   <energy>
    <i name="e_fr_energy">    -21.85032629 </i>
    <i name="e_wo_entrp">    -21.85032629 </i>
    <i name="e_0_energy">    -21.85032629 </i>
   </energy>
  </scstep>
  <scstep>
   <time name="diag">    0.02    0.02</time>
   <time name="diis">    0.09    0.09</time>
   <time name="orth">    0.00    0.00</time>
   <time name="total">    0.18    0.18</time>
   <energy>
    <i name="e_fr_energy">    -21.85015771 </i>
    <i name="e_wo_entrp">    -21.85015771 </i>
    <i name="e_0_energy">    -21.85015771 </i>
   </energy>
  </scstep>
  <scstep>
   <time name="diag">    0.02    0.02</time>
   <time name="diis">    0.08    0.08</time>
   <time name="orth">    0.00    0.00</time>
   <time name="total">    0.17    0.17</time>
   <energy>
    <i name="e_fr_energy">    -21.85049259 </i>
    <i name="e_wo_entrp">    -21.85049259 </i>
    <i name="e_0_energy">    -21.85049259 </i>
   </energy>
  </scstep>
  <scstep>
   <time name="diag">    0.02    0.02</time>
   <time name="diis">    0.08    0.08</time>
   <time name="orth">    0.00    0.00</time>
   <time name="total">    0.17    0.17</time>
   <energy>
    <i name="e_fr_energy">    -21.85056543 </i>
    <i name="e_wo_entrp">    -21.85056543 </i>
    <i name="e_0_energy">    -21.85056543 </i>
   </energy>
  </scstep>
  <scstep>
   <time name="diag">    0.02    0.02</time>
   <time name="diis">    0.06    0.06</time>
   <time name="orth">    0.00    0.00</time>
   <time name="total">    0.15    0.15</time>
   <energy>
    <i name="e_fr_energy">    -21.85069582 </i>
    <i name="e_wo_entrp">    -21.85069582 </i>
    <i name="e_0_energy">    -21.85069582 </i>
   </energy>
  </scstep>
  <scstep>
   <time name="diag">    0.02    0.02</time>
   <time name="diis">    0.06    0.06</time>
   <time name="orth">    0.00    0.00</time>
   <time name="total">    0.15    0.15</time>
   <energy>
    <i name="e_fr_energy">    -21.85073807 </i>
    <i name="e_wo_entrp">    -21.85073807 </i>
    <i name="e_0_energy">    -21.85073807 </i>
   </energy>
  </scstep>
  <scstep>
   <time name="diag">    0.02    0.02</time>
   <time name="diis">    0.05    0.05</time>
   <time name="orth">    0.00    0.00</time>
   <time name="total">    0.14    0.14</time>
   <energy>
    <i name="e_fr_energy">    -21.85076772 </i>
    <i name="e_wo_entrp">    -21.85076772 </i>
    <i name="e_0_energy">    -21.85076772 </i>
   </energy>
  </scstep>
  <scstep>
   <time name="diag">    0.02    0.02</time>
   <time name="diis">    0.05    0.05</time>
   <time name="orth">    0.00    0.00</time>
   <time name="total">    0.12    0.12</time>
   <energy>
    <i name="alphaZ">     10.89288288 </i>
    <i name="ewald">   5368.65661653 </i>
    <i name="hartreedc">  -6055.86740903 </i>
    <i name="XCdc">    -35.20618140 </i>
    <i name="pawpsdc">    472.06171830 </i>
    <i name="pawaedc">   -396.24075221 </i>
    <i name="eentropy">      0.00000000 </i>
    <i name="bandstr">   -157.30276267 </i>
    <i name="atom">    771.15511399 </i>
    <i name="e_fr_energy">    -21.85077360 </i>
    <i name="e_wo_entrp">    -21.85077360 </i>
    <i name="e_0_energy">    -21.85077360 </i>
   </energy>
  </scstep>
  <structure>
   <crystal>
    <varray name="basis" >
     <v>       3.19031573       0.00000000       0.00000000 </v>
     <v>      -1.59515786       2.76289447       0.00000000 </v>
     <v>       0.00000000       0.00000000      30.87900430 </v>
    </varray>
    <i name="volume">    272.18315887 </i>
    <varray name="rec_basis" >
     <v>       0.31344860       0.18096963       0.00000000 </v>
     <v>       0.00000000       0.36193927       0.00000000 </v>
     <v>       0.00000000       0.00000000       0.03238446 </v>
    </varray>
   </crystal>
   <varray name="positions" >
    <v>       0.33333300       0.66666700       0.12046214 </v>
    <v>       0.66666700       0.33333300       0.06978420 </v>
    <v>       0.66666600       0.33333300       0.17114009 </v>
   </varray>
  </structure>
  <varray name="forces" >
   <v>       0.00000000      -0.00000000       0.00000000 </v>
   <v>      -0.00000000       0.00000000       0.14082538 </v>
   <v>      -0.00000000       0.00000000      -0.14082538 </v>
  </varray>
  <varray name="stress" >
   <v>      -1.59723835       0.00000000       0.00000000 </v>
   <v>       0.00000000      -1.59723835       0.00000000 </v>
   <v>      -0.00000000       0.00000000      -2.70857578 </v>
  </varray>
  <energy>
   <i name="e_fr_energy">    -22.44157182 </i>
   <i name="e_wo_entrp">    -22.44157182 </i>
   <i name="e_0_energy">      0.00000000 </i>
  </energy>
  <time name="totalsc">    3.45    3.57</time>
  <eigenvalues>
   <array>
    <dimension dim="1">band</dimension>
    <dimension dim="2">kpoint</dimension>
    <dimension dim="3">spin</dimension>
    <field>eigene</field>
    <field>occ</field>
    <set>
     <set comment="spin 1">
      <set comment="kpoint 1">
       <r>  -17.7766    1.0000 </r>
       <r>  -16.5700    1.0000 </r>
       <r>   -9.2957    1.0000 </r>
       <r>   -6.3324    1.0000 </r>
       <r>   -6.3324    1.0000 </r>
       <r>   -5.4791    1.0000 </r>
       <r>   -5.2257    1.0000 </r>
       <r>   -5.2257    1.0000 </r>
       <r>   -3.7501    1.0000 </r>
       <r>   -0.9797    0.0000 </r>
       <r>   -0.9797    0.0000 </r>
       <r>   -0.7588    0.0000 </r>
       <r>   -0.7588    0.0000 </r>
       <r>    1.6658    0.0000 </r>
      </set>
      <set comment="kpoint 2">
       <r>  -16.9941    1.0000 </r>
       <r>  -16.1986    1.0000 </r>
       <r>   -8.6849    1.0000 </r>
       <r>   -7.5241    1.0000 </r>
       <r>   -7.2619    1.0000 </r>
       <r>   -6.1968    1.0000 </r>
       <r>   -5.5120    1.0000 </r>
       <r>   -5.0519    1.0000 </r>
       <r>   -4.4558    1.0000 </r>
       <r>   -1.5844    0.0000 </r>
       <r>   -1.4086    0.0000 </r>
       <r>   -0.8645    0.0000 </r>
       <r>   -0.0077    0.0000 </r>
       <r>    2.8520    0.0000 </r>
      </set>
      <set comment="kpoint 3">
       <r>  -15.9912    1.0000 </r>
       <r>  -15.7466    1.0000 </r>
       <r>   -9.4539    1.0000 </r>
       <r>   -8.4946    1.0000 </r>
       <r>   -7.7846    1.0000 </r>
       <r>   -6.8748    1.0000 </r>
       <r>   -5.5995    1.0000 </r>
       <r>   -4.6966    1.0000 </r>
       <r>   -4.3714    1.0000 </r>
       <r>   -1.5650    0.0000 </r>
       <r>   -1.0462    0.0000 </r>
       <r>    0.1515    0.0000 </r>
       <r>    0.5010    0.0000 </r>
       <r>    2.4276    0.0000 </r>
      </set>
      <set comment="kpoint 4">
       <r>  -16.0214    1.0000 </r>
       <r>  -15.7287    1.0000 </r>
       <r>   -8.8060    1.0000 </r>
       <r>   -8.6005    1.0000 </r>
       <r>   -7.3319    1.0000 </r>
       <r>   -6.9487    1.0000 </r>
       <r>   -6.6278    1.0000 </r>
       <r>   -5.3754    1.0000 </r>
       <r>   -4.2454    1.0000 </r>
       <r>   -1.5954    0.0000 </r>
       <r>   -0.9869    0.0000 </r>
       <r>   -0.6752    0.0000 </r>
       <r>    0.8001    0.0000 </r>
       <r>    3.7852    0.0000 </r>
      </set>
     </set>
    </set>
   </array>
  </eigenvalues>
  <separator name="orbital magnetization" >
   <v name="MAGDIPOLOUT">      0.00000000      0.00000000      0.00000000</v>
  </separator>
  <dos>
   <i name="efermi">     -3.74724069 </i>
   <total>
    <array>
     <dimension dim="1">gridpoints</dimension>
     <dimension dim="2">spin</dimension>
     <field>energy</field>
     <field>total</field>
     <field>integrated</field>
     <set>
      <set comment="spin 1">
       <r>   -19.7766     0.0000     0.0000 </r>
       <r>   -19.6914     0.0000     0.0000 </r>
       <r>   -19.6062     0.0000     0.0000 </r>
       <r>   -19.5210     0.0000     0.0000 </r>
       <r>   -19.4358     0.0000     0.0000 </r>
       <r>   -19.3506     0.0000     0.0000 </r>
       <r>   -19.2654     0.0000     0.0000 </r>
       <r>   -19.1802     0.0000     0.0000 </r>
       <r>   -19.0950     0.0000     0.0000 </r>
       <r>   -19.0098     0.0000     0.0000 </r>
       <r>   -18.9246     0.0000     0.0000 </r>
       <r>   -18.8394     0.0000     0.0000 </r>
       <r>   -18.7542     0.0000     0.0000 </r>
       <r>   -18.6690     0.0000     0.0000 </r>
       <r>   -18.5837     0.0000     0.0000 </r>
       <r>   -18.4985     0.0000     0.0000 </r>
       <r>   -18.4133     0.0000     0.0000 </r>
       <r>   -18.3281     0.0000     0.0000 </r>
       <r>   -18.2429     0.0000     0.0000 </r>
       <r>   -18.1577     0.0000     0.0000 </r>
       <r>   -18.0725     0.0000     0.0000 </r>
       <r>   -17.9873     0.0000     0.0000 </r>
       <r>   -17.9021     0.0000     0.0000 </r>
       <r>   -17.8169     0.0000     0.0000 </r>
       <r>   -17.7317     0.0550     0.0012 </r>
       <r>   -17.6465     0.1594     0.0104 </r>
       <r>   -17.5613     0.2638     0.0284 </r>
       <r>   -17.4761     0.3681     0.0553 </r>
       <r>   -17.3909     0.4725     0.0911 </r>
       <r>   -17.3057     0.5768     0.1358 </r>
       <r>   -17.2204     0.6812     0.1894 </r>
       <r>   -17.1352     0.7855     0.2519 </r>
       <r>   -17.0500     0.8899     0.3233 </r>
       <r>   -16.9648     0.7929     0.3979 </r>
       <r>   -16.8796     0.8563     0.4681 </r>
       <r>   -16.7944     0.9198     0.5438 </r>
       <r>   -16.7092     0.9833     0.6249 </r>
       <r>   -16.6240     1.0468     0.7114 </r>
       <r>   -16.5388     1.2801     0.8059 </r>
       <r>   -16.4536     1.8069     0.9374 </r>
       <r>   -16.3684     2.3336     1.1138 </r>
       <r>   -16.2832     2.8604     1.3351 </r>
       <r>   -16.1980     2.9627     1.6010 </r>
       <r>   -16.1128     3.3384     1.8695 </r>
       <r>   -16.0276     3.7142     2.1699 </r>
       <r>   -15.9424     2.5353     2.9044 </r>
       <r>   -15.8572     2.8475     3.1337 </r>
       <r>   -15.7719     3.1598     3.3897 </r>
       <r>   -15.6867     0.0000     4.0000 </r>
       <r>   -15.6015     0.0000     4.0000 </r>
       <r>   -15.5163     0.0000     4.0000 </r>
       <r>   -15.4311     0.0000     4.0000 </r>
       <r>   -15.3459     0.0000     4.0000 </r>
       <r>   -15.2607     0.0000     4.0000 </r>
       <r>   -15.1755     0.0000     4.0000 </r>
       <r>   -15.0903     0.0000     4.0000 </r>
       <r>   -15.0051     0.0000     4.0000 </r>
       <r>   -14.9199     0.0000     4.0000 </r>
       <r>   -14.8347     0.0000     4.0000 </r>
       <r>   -14.7495     0.0000     4.0000 </r>
       <r>   -14.6643     0.0000     4.0000 </r>
       <r>   -14.5791     0.0000     4.0000 </r>
       <r>   -14.4939     0.0000     4.0000 </r>
       <r>   -14.4086     0.0000     4.0000 </r>
       <r>   -14.3234     0.0000     4.0000 </r>
       <r>   -14.2382     0.0000     4.0000 </r>
       <r>   -14.1530     0.0000     4.0000 </r>
       <r>   -14.0678     0.0000     4.0000 </r>
       <r>   -13.9826     0.0000     4.0000 </r>
       <r>   -13.8974     0.0000     4.0000 </r>
       <r>   -13.8122     0.0000     4.0000 </r>
       <r>   -13.7270     0.0000     4.0000 </r>
       <r>   -13.6418     0.0000     4.0000 </r>
       <r>   -13.5566     0.0000     4.0000 </r>
       <r>   -13.4714     0.0000     4.0000 </r>
       <r>   -13.3862     0.0000     4.0000 </r>
       <r>   -13.3010     0.0000     4.0000 </r>
       <r>   -13.2158     0.0000     4.0000 </r>
       <r>   -13.1306     0.0000     4.0000 </r>
       <r>   -13.0454     0.0000     4.0000 </r>
       <r>   -12.9601     0.0000     4.0000 </r>
       <r>   -12.8749     0.0000     4.0000 </r>
       <r>   -12.7897     0.0000     4.0000 </r>
       <r>   -12.7045     0.0000     4.0000 </r>
       <r>   -12.6193     0.0000     4.0000 </r>
       <r>   -12.5341     0.0000     4.0000 </r>
       <r>   -12.4489     0.0000     4.0000 </r>
       <r>   -12.3637     0.0000     4.0000 </r>
       <r>   -12.2785     0.0000     4.0000 </r>
       <r>   -12.1933     0.0000     4.0000 </r>
       <r>   -12.1081     0.0000     4.0000 </r>
       <r>   -12.0229     0.0000     4.0000 </r>
       <r>   -11.9377     0.0000     4.0000 </r>
       <r>   -11.8525     0.0000     4.0000 </r>
       <r>   -11.7673     0.0000     4.0000 </r>
       <r>   -11.6821     0.0000     4.0000 </r>
       <r>   -11.5968     0.0000     4.0000 </r>
       <r>   -11.5116     0.0000     4.0000 </r>
       <r>   -11.4264     0.0000     4.0000 </r>
       <r>   -11.3412     0.0000     4.0000 </r>
       <r>   -11.2560     0.0000     4.0000 </r>
       <r>   -11.1708     0.0000     4.0000 </r>
       <r>   -11.0856     0.0000     4.0000 </r>
       <r>   -11.0004     0.0000     4.0000 </r>
       <r>   -10.9152     0.0000     4.0000 </r>
       <r>   -10.8300     0.0000     4.0000 </r>
       <r>   -10.7448     0.0000     4.0000 </r>
       <r>   -10.6596     0.0000     4.0000 </r>
       <r>   -10.5744     0.0000     4.0000 </r>
       <r>   -10.4892     0.0000     4.0000 </r>
       <r>   -10.4040     0.0000     4.0000 </r>
       <r>   -10.3188     0.0000     4.0000 </r>
       <r>   -10.2336     0.0000     4.0000 </r>
       <r>   -10.1483     0.0000     4.0000 </r>
       <r>   -10.0631     0.0000     4.0000 </r>
       <r>    -9.9779     0.0000     4.0000 </r>
       <r>    -9.8927     0.0000     4.0000 </r>
       <r>    -9.8075     0.0000     4.0000 </r>
       <r>    -9.7223     0.0000     4.0000 </r>
       <r>    -9.6371     0.0000     4.0000 </r>
       <r>    -9.5519     0.0000     4.0000 </r>
       <r>    -9.4667     0.0000     4.0000 </r>
       <r>    -9.3815     0.3473     4.0126 </r>
       <r>    -9.2963     0.7561     4.0596 </r>
       <r>    -9.2111     1.3348     4.1486 </r>
       <r>    -9.1259     1.9149     4.2871 </r>
       <r>    -9.0407     2.4949     4.4749 </r>
       <r>    -8.9555     3.0749     4.7122 </r>
       <r>    -8.8703     3.6549     4.9989 </r>
       <r>    -8.7850     3.7102     5.4425 </r>
       <r>    -8.6998     6.8682     5.8931 </r>
       <r>    -8.6146     0.0000     6.0000 </r>
       <r>    -8.5294     3.3098     6.4943 </r>
       <r>    -8.4442     1.4223     6.6501 </r>
       <r>    -8.3590     1.3551     6.7684 </r>
       <r>    -8.2738     1.2879     6.8810 </r>
       <r>    -8.1886     1.2207     6.9879 </r>
       <r>    -8.1034     1.1535     7.0890 </r>
       <r>    -8.0182     1.0864     7.1845 </r>
       <r>    -7.9330     1.0192     7.2742 </r>
       <r>    -7.8478     0.9520     7.3581 </r>
       <r>    -7.7626     1.1053     7.4388 </r>
       <r>    -7.6774     1.8899     7.5664 </r>
       <r>    -7.5922     2.6745     7.7609 </r>
       <r>    -7.5070     3.3962     8.0211 </r>
       <r>    -7.4218     4.2030     8.3448 </r>
       <r>    -7.3365     5.0098     8.7373 </r>
       <r>    -7.2513     1.2830     9.4105 </r>
       <r>    -7.1661     1.1641     9.5148 </r>
       <r>    -7.0809     1.0451     9.6089 </r>
       <r>    -6.9957     0.9261     9.6929 </r>
       <r>    -6.9105     6.7965    10.1997 </r>
       <r>    -6.8253     2.7012    10.5093 </r>
       <r>    -6.7401     2.4445    10.7285 </r>
       <r>    -6.6549     2.1879    10.9259 </r>
       <r>    -6.5697     2.7304    11.2708 </r>
       <r>    -6.4845     2.5760    11.4969 </r>
       <r>    -6.3993     2.4217    11.7098 </r>
       <r>    -6.3141     2.2929    11.9098 </r>
       <r>    -6.2289     2.2576    12.1037 </r>
       <r>    -6.1437     2.2782    12.2973 </r>
       <r>    -6.0585     2.2564    12.4904 </r>
       <r>    -5.9732     2.2346    12.6818 </r>
       <r>    -5.8880     2.2128    12.8712 </r>
       <r>    -5.8028     2.1910    13.0589 </r>
       <r>    -5.7176     2.1693    13.2446 </r>
       <r>    -5.6324     2.1475    13.4285 </r>
       <r>    -5.5472     1.2914    13.5888 </r>
       <r>    -5.4620     2.1625    13.7445 </r>
       <r>    -5.3768     1.3828    13.8955 </r>
       <r>    -5.2916     2.7445    14.2412 </r>
       <r>    -5.2064     3.6735    14.4930 </r>
       <r>    -5.1212     6.8431    14.9411 </r>
       <r>    -5.0360     2.6632    15.5481 </r>
       <r>    -4.9508     1.9946    15.7465 </r>
       <r>    -4.8656     1.3260    15.8880 </r>
       <r>    -4.7804     0.6574    15.9725 </r>
       <r>    -4.6952     0.0000    16.0000 </r>
       <r>    -4.6100     0.0000    16.0000 </r>
       <r>    -4.5247     0.0000    16.0000 </r>
       <r>    -4.4395     5.6991    16.0837 </r>
       <r>    -4.3543     9.7270    16.7955 </r>
       <r>    -4.2691     7.3575    17.5234 </r>
       <r>    -4.1839     0.6534    17.8583 </r>
       <r>    -4.0987     0.5251    17.9085 </r>
       <r>    -4.0135     0.3968    17.9477 </r>
       <r>    -3.9283     0.2684    17.9761 </r>
       <r>    -3.8431     0.1401    17.9935 </r>
       <r>    -3.7579     0.0118    18.0000 </r>
       <r>    -3.6727     0.0000    18.0000 </r>
       <r>    -3.5875     0.0000    18.0000 </r>
       <r>    -3.5023     0.0000    18.0000 </r>
       <r>    -3.4171     0.0000    18.0000 </r>
       <r>    -3.3319     0.0000    18.0000 </r>
       <r>    -3.2467     0.0000    18.0000 </r>
       <r>    -3.1614     0.0000    18.0000 </r>
       <r>    -3.0762     0.0000    18.0000 </r>
       <r>    -2.9910     0.0000    18.0000 </r>
       <r>    -2.9058     0.0000    18.0000 </r>
       <r>    -2.8206     0.0000    18.0000 </r>
       <r>    -2.7354     0.0000    18.0000 </r>
       <r>    -2.6502     0.0000    18.0000 </r>
       <r>    -2.5650     0.0000    18.0000 </r>
       <r>    -2.4798     0.0000    18.0000 </r>
       <r>    -2.3946     0.0000    18.0000 </r>
       <r>    -2.3094     0.0000    18.0000 </r>
       <r>    -2.2242     0.0000    18.0000 </r>
       <r>    -2.1390     0.0000    18.0000 </r>
       <r>    -2.0538     0.0000    18.0000 </r>
       <r>    -1.9686     0.0000    18.0000 </r>
       <r>    -1.8834     0.0000    18.0000 </r>
       <r>    -1.7982     0.0000    18.0000 </r>
       <r>    -1.7129     0.0000    18.0000 </r>
       <r>    -1.6277     0.0000    18.0000 </r>
       <r>    -1.5425     1.1545    19.6751 </r>
       <r>    -1.4573     0.9797    19.7660 </r>
       <r>    -1.3721     4.3875    19.9716 </r>
       <r>    -1.2869     4.3423    20.3436 </r>
       <r>    -1.2017     4.2971    20.7116 </r>
       <r>    -1.1165     4.2518    21.0758 </r>
       <r>    -1.0313     6.3404    21.4520 </r>
       <r>    -0.9461     0.0000    22.0000 </r>
       <r>    -0.8609    10.7736    22.0392 </r>
       <r>    -0.7757     3.9281    22.6656 </r>
       <r>    -0.6905     1.7676    22.8688 </r>
       <r>    -0.6053     2.3860    23.1901 </r>
       <r>    -0.5201     2.2536    23.3877 </r>
       <r>    -0.4349     2.1212    23.5741 </r>
       <r>    -0.3496     1.9888    23.7492 </r>
       <r>    -0.2644     1.8564    23.9130 </r>
       <r>    -0.1792     1.7240    24.0656 </r>
       <r>    -0.0940     1.5917    24.2068 </r>
       <r>    -0.0088     1.4593    24.3368 </r>
       <r>     0.0764     1.3555    24.4538 </r>
       <r>     0.1616     1.3519    24.5680 </r>
       <r>     0.2468     1.5651    24.6923 </r>
       <r>     0.3320     1.7782    24.8347 </r>
       <r>     0.4172     1.9913    24.9953 </r>
       <r>     0.5024     2.2023    25.1741 </r>
       <r>     0.5876     2.2897    25.3654 </r>
       <r>     0.6728     2.3771    25.5643 </r>
       <r>     0.7580     2.4645    25.7705 </r>
       <r>     0.8432     0.0000    26.0000 </r>
       <r>     0.9284     0.0000    26.0000 </r>
       <r>     1.0136     0.0000    26.0000 </r>
       <r>     1.0989     0.0000    26.0000 </r>
       <r>     1.1841     0.0000    26.0000 </r>
       <r>     1.2693     0.0000    26.0000 </r>
       <r>     1.3545     0.0000    26.0000 </r>
       <r>     1.4397     0.0000    26.0000 </r>
       <r>     1.5249     0.0000    26.0000 </r>
       <r>     1.6101     0.0000    26.0000 </r>
       <r>     1.6953     0.0157    26.0002 </r>
       <r>     1.7805     0.0612    26.0035 </r>
       <r>     1.8657     0.1066    26.0107 </r>
       <r>     1.9509     0.1520    26.0217 </r>
       <r>     2.0361     0.1974    26.0366 </r>
       <r>     2.1213     0.2428    26.0553 </r>
       <r>     2.2065     0.2882    26.0779 </r>
       <r>     2.2917     0.3336    26.1044 </r>
       <r>     2.3769     0.3791    26.1348 </r>
       <r>     2.4622     0.5284    26.1708 </r>
       <r>     2.5474     0.8304    26.2287 </r>
       <r>     2.6326     1.1323    26.3123 </r>
       <r>     2.7178     1.4343    26.4217 </r>
       <r>     2.8030     1.7362    26.5567 </r>
       <r>     2.8882     2.0220    26.7203 </r>
       <r>     2.9734     1.8824    26.8867 </r>
       <r>     3.0586     1.7428    27.0411 </r>
       <r>     3.1438     1.6032    27.1837 </r>
       <r>     3.2290     1.4636    27.3143 </r>
       <r>     3.3142     1.3240    27.4331 </r>
       <r>     3.3994     1.1845    27.5400 </r>
       <r>     3.4846     1.0449    27.6350 </r>
       <r>     3.5698     0.9053    27.7180 </r>
       <r>     3.6550     0.7657    27.7892 </r>
       <r>     3.7402     0.6261    27.8485 </r>
       <r>     3.8254     0.0000    28.0000 </r>
       <r>     3.9107     0.0000    28.0000 </r>
       <r>     3.9959     0.0000    28.0000 </r>
       <r>     4.0811     0.0000    28.0000 </r>
       <r>     4.1663     0.0000    28.0000 </r>
       <r>     4.2515     0.0000    28.0000 </r>
       <r>     4.3367     0.0000    28.0000 </r>
       <r>     4.4219     0.0000    28.0000 </r>
       <r>     4.5071     0.0000    28.0000 </r>
       <r>     4.5923     0.0000    28.0000 </r>
       <r>     4.6775     0.0000    28.0000 </r>
       <r>     4.7627     0.0000    28.0000 </r>
       <r>     4.8479     0.0000    28.0000 </r>
       <r>     4.9331     0.0000    28.0000 </r>
       <r>     5.0183     0.0000    28.0000 </r>
       <r>     5.1035     0.0000    28.0000 </r>
       <r>     5.1887     0.0000    28.0000 </r>
       <r>     5.2740     0.0000    28.0000 </r>
       <r>     5.3592     0.0000    28.0000 </r>
       <r>     5.4444     0.0000    28.0000 </r>
       <r>     5.5296     0.0000    28.0000 </r>
       <r>     5.6148     0.0000    28.0000 </r>
       <r>     5.7000     0.0000    28.0000 </r>
       <r>     5.7852     0.0000    28.0000 </r>
      </set>
     </set>
    </array>
   </total>
  </dos>
 </calculation>
 <structure name="finalpos" >
  <crystal>
   <varray name="basis" >
    <v>       3.19031573       0.00000000       0.00000000 </v>
    <v>      -1.59515786       2.76289447       0.00000000 </v>
    <v>       0.00000000       0.00000000      30.87900430 </v>
   </varray>
   <i name="volume">    272.18315887 </i>
   <varray name="rec_basis" >
    <v>       0.31344860       0.18096963       0.00000000 </v>
    <v>       0.00000000       0.36193927       0.00000000 </v>
    <v>       0.00000000       0.00000000       0.03238446 </v>
   </varray>
  </crystal>
  <varray name="positions" >
   <v>       0.33333300       0.66666700       0.12046214 </v>
   <v>       0.66666700       0.33333300       0.06978420 </v>
   <v>       0.66666600       0.33333300       0.17114009 </v>
  </varray>
 </structure>
</modeling>
