    3    3    1    1
  0.7897505E+02  0.3190316E-09  0.3190316E-09  0.2687900E-08  0.5000000E-15
  1.000000000000000E-004
  CAR 
 unknown system                          
     18     10     14
 
  0.0000000E+00  0.0000000E+00  0.0000000E+00  0.1562500E-01
    1      -17.463520   1.000000
    2      -16.255456   1.000000
    3       -8.984424   1.000000
    4       -6.023652   1.000000
    5       -6.023646   1.000000
    6       -5.162323   1.000000
    7       -4.918114   1.000000
    8       -4.918082   1.000000
    9       -3.441929   1.000000
   10       -0.670432   0.000000
   11       -0.670401   0.000000
   12       -0.446681   0.000000
   13       -0.446668   0.000000
   14        1.994099   0.000000
 
  0.1250000E+00  0.0000000E+00  0.0000000E+00  0.9375000E-01
    1      -17.249371   1.000000
    2      -16.153069   1.000000
    3       -8.739893   1.000000
    4       -6.487071   1.000000
    5       -5.970402   1.000000
    6       -5.789231   1.000000
    7       -5.253843   1.000000
    8       -4.484844   1.000000
    9       -3.580352   1.000000
   10       -0.950444   0.000000
   11       -0.884644   0.000000
   12       -0.683271   0.000000
   13       -0.315621   0.000000
   14        2.368293   0.000000
 
  0.2500000E+00  0.0000000E+00  0.0000000E+00  0.9375000E-01
    1      -16.680634   1.000000
    2      -15.884309   1.000000
    3       -8.373806   1.000000
    4       -7.213627   1.000000
    5       -6.951249   1.000000
    6       -5.888870   1.000000
    7       -5.202152   1.000000
    8       -4.736428   1.000000
    9       -4.148310   1.000000
   10       -1.274551   0.000000
   11       -1.097996   0.000000
   12       -0.555883   0.000000
   13        0.301354   0.000000
   14        3.177585   0.000000
 
  0.3750000E+00  0.0000000E+00  0.0000000E+00  0.9375000E-01
    1      -16.005521   1.000000
    2      -15.575882   1.000000
    3       -8.811057   1.000000
    4       -7.818621   1.000000
    5       -7.346466   1.000000
    6       -6.386206   1.000000
    7       -5.145730   1.000000
    8       -4.611647   1.000000
    9       -4.343510   1.000000
   10       -1.279430   0.000000
   11       -1.000555   0.000000
   12        0.162636   0.000000
   13        0.694683   0.000000
   14        3.701127   0.000000
 
  0.5000000E+00  0.0000000E+00  0.0000000E+00  0.4687500E-01
    1      -15.677265   1.000000
    2      -15.432559   1.000000
    3       -9.143707   1.000000
    4       -8.183543   1.000000
    5       -7.472771   1.000000
    6       -6.566785   1.000000
    7       -5.284584   1.000000
    8       -4.384568   1.000000
    9       -4.062730   1.000000
   10       -1.257110   0.000000
   11       -0.741164   0.000000
   12        0.461224   0.000000
   13        0.810109   0.000000
   14        2.740510   0.000000
 
  0.1250000E+00  0.1250000E+00  0.0000000E+00  0.9375000E-01
    1      -16.856561   1.000000
    2      -15.966061   1.000000
    3       -8.392631   1.000000
    4       -7.051063   1.000000
    5       -6.532563   1.000000
    6       -6.067684   1.000000
    7       -5.449763   1.000000
    8       -4.350372   1.000000
    9       -3.952243   1.000000
   10       -1.349684   0.000000
   11       -0.971509   0.000000
   12       -0.959706   0.000000
   13        0.279233   0.000000
   14        2.952045   0.000000
 
  0.2500000E+00  0.1250000E+00  0.0000000E+00  0.1875000E+00
    1      -16.222973   1.000000
    2      -15.667526   1.000000
    3       -8.455385   1.000000
    4       -7.477785   1.000000
    5       -7.214642   1.000000
    6       -6.571986   1.000000
    7       -5.350322   1.000000
    8       -4.712585   1.000000
    9       -4.235878   1.000000
   10       -1.433025   0.000000
   11       -0.984547   0.000000
   12       -0.489733   0.000000
   13        0.787071   0.000000
   14        3.929143   0.000000
 
  0.3750000E+00  0.1250000E+00  0.0000000E+00  0.1875000E+00
    1      -15.692499   1.000000
    2      -15.423610   1.000000
    3       -8.856354   1.000000
    4       -8.240814   1.000000
    5       -7.345029   1.000000
    6       -6.588795   1.000000
    7       -5.335150   1.000000
    8       -5.194406   1.000000
    9       -3.909008   1.000000
   10       -1.238264   0.000000
   11       -0.727950   0.000000
   12        0.131948   0.000000
   13        0.820776   0.000000
   14        3.267347   0.000000
 
  0.2500000E+00  0.2500000E+00  0.0000000E+00  0.9375000E-01
    1      -15.707460   1.000000
    2      -15.414612   1.000000
    3       -8.495974   1.000000
    4       -8.291612   1.000000
    5       -7.017861   1.000000
    6       -6.637099   1.000000
    7       -6.317967   1.000000
    8       -5.060957   1.000000
    9       -3.937838   1.000000
   10       -1.289273   0.000000
   11       -0.678238   0.000000
   12       -0.366592   0.000000
   13        1.108830   0.000000
   14        4.099692   0.000000
 
  0.3750000E+00  0.2500000E+00  0.0000000E+00  0.9375000E-01
    1      -15.472574   1.000000
    2      -15.295456   1.000000
    3       -8.676039   1.000000
    4       -8.326953   1.000000
    5       -7.302213   1.000000
    6       -6.639617   1.000000
    7       -6.409455   1.000000
    8       -5.447244   1.000000
    9       -3.570407   1.000000
   10       -1.614921   0.000000
   11       -0.308229   0.000000
   12       -0.127636   0.000000
   13        1.254135   0.000000
   14        3.510288   0.000000
