       N       E                     dE             d eps       ncg     rms          rms(c)
DAV:   1     0.165123679890E+03    0.16512E+03   -0.79859E+03   280   0.152E+03
DAV:   2    -0.142551650515E+01   -0.16655E+03   -0.15533E+03   454   0.202E+02
DAV:   3    -0.228440257041E+02   -0.21419E+02   -0.21119E+02   378   0.865E+01
DAV:   4    -0.233964726441E+02   -0.55245E+00   -0.54855E+00   378   0.168E+01
DAV:   5    -0.234097763989E+02   -0.13304E-01   -0.13300E-01   360   0.254E+00    0.689E+00
RMM:   6    -0.222496486942E+02    0.11601E+01   -0.54403E+00   296   0.125E+01    0.261E+00
RMM:   7    -0.218642648078E+02    0.38538E+00   -0.55251E-01   290   0.341E+00    0.150E+00
RMM:   8    -0.218043868283E+02    0.59878E-01   -0.23319E-01   309   0.253E+00    0.356E-01
RMM:   9    -0.217995387616E+02    0.48481E-02   -0.88201E-03   335   0.613E-01    0.964E-02
RMM:  10    -0.217987889744E+02    0.74979E-03   -0.17196E-03   336   0.223E-01    0.442E-02
RMM:  11    -0.217986937483E+02    0.95226E-04   -0.16864E-03   315   0.194E-01    0.557E-02
RMM:  12    -0.217984759103E+02    0.21784E-03   -0.55775E-04   303   0.134E-01    0.178E-02
RMM:  13    -0.217987533078E+02   -0.27740E-03   -0.15672E-04   282   0.736E-02    0.199E-02
RMM:  14    -0.217987896185E+02   -0.36311E-04   -0.26855E-05   254   0.299E-02    0.502E-03
RMM:  15    -0.217989034347E+02   -0.11382E-03   -0.11409E-05   198   0.181E-02    0.279E-03
RMM:  16    -0.217989386337E+02   -0.35199E-04   -0.44761E-06   185   0.953E-03    0.172E-03
RMM:  17    -0.217989816975E+02   -0.43064E-04   -0.32244E-06   162   0.793E-03    0.137E-03
RMM:  18    -0.217989890354E+02   -0.73379E-05   -0.45209E-07    86   0.405E-03
   1 F= -.22389898E+02 E0= -.22389898E+02  d E =0.000000E+00
