 vasp.5.4.4.18Apr17-6-g9f103f2a35 (build Jun 30 2017 11:15:00) complex          
  
 executed on    STALLO_VASP_5.4.4 date 2019.11.08  12:01:03
 running on    4 total cores
 distrk:  each k-point on    4 cores,    1 groups
 distr:  one band on NCORES_PER_BAND=   2 cores,    2 groups


--------------------------------------------------------------------------------------------------------


 INCAR:
 POTCAR:   PAW_PBE Mo 08Apr2002                   
 POTCAR:    PAW_PBE S 17Jan2003                   
 POTCAR:   PAW_PBE Mo 08Apr2002                   
   VRHFIN =Mo: 4p5s4d                                                           
   LEXCH  = PE                                                                  
   EATOM  =   217.5180 eV,   15.9871 Ry                                         
                                                                                
   TITEL  = PAW_PBE Mo 08Apr2002                                                
   LULTRA =        F    use ultrasoft PP ?                                      
   IUNSCR =        1    unscreen: 0-lin 1-nonlin 2-no                           
   RPACOR =    2.200    partial core radius                                     
   POMASS =   95.940; ZVAL   =    6.000    mass and valenz                      
   RCORE  =    2.750    outmost cutoff radius                                   
   RWIGS  =    2.750; RWIGS  =    1.455    wigner-seitz radius (au A)           
   ENMAX  =  224.584; ENMIN  =  168.438 eV                                      
   RCLOC  =    2.111    cutoff for local pot                                    
   LCOR   =        T    correct aug charges                                     
   LPAW   =        T    paw PP                                                  
   EAUG   =  345.278                                                            
   DEXC   =    -.088                                                            
   RMAX   =    3.077    core radius for proj-oper                               
   RAUG   =    1.300    factor for augmentation sphere                          
   RDEP   =    2.815    radius for radial grids                                 
   QCUT   =   -4.063; QGAM   =    8.126    optimization parameters              
                                                                                
   Description                                                                  
     l     E      TYP  RCUT    TYP  RCUT                                        
     2   .000     23  2.500                                                     
     2   .000     23  2.500                                                     
     0   .000     23  2.600                                                     
     0  1.000     23  2.600                                                     
     1   .400     23  2.750                                                     
     1  2.000     23  2.750                                                     
     3   .000      7   .000                                                     
  local pseudopotential read in
  partial core-charges read in
  atomic valenz-charges read in
  non local Contribution for L=           2  read in
    real space projection operators read in
  non local Contribution for L=           2  read in
    real space projection operators read in
  non local Contribution for L=           0  read in
    real space projection operators read in
  non local Contribution for L=           0  read in
    real space projection operators read in
  non local Contribution for L=           1  read in
    real space projection operators read in
  non local Contribution for L=           1  read in
    real space projection operators read in
    PAW grid and wavefunctions read in
 
   number of l-projection  operators is LMAX  =           6
   number of lm-projection operators is LMMAX =          18
 
 POTCAR:    PAW_PBE S 17Jan2003                   
   VRHFIN =S : s2p4                                                             
   LEXCH  = PE                                                                  
   EATOM  =   276.8230 eV,   20.3459 Ry                                         
                                                                                
   TITEL  = PAW_PBE S 17Jan2003                                                 
   LULTRA =        F    use ultrasoft PP ?                                      
   IUNSCR =        1    unscreen: 0-lin 1-nonlin 2-no                           
   RPACOR =    1.500    partial core radius                                     
   POMASS =   32.066; ZVAL   =    6.000    mass and valenz                      
   RCORE  =    1.900    outmost cutoff radius                                   
   RWIGS  =    2.200; RWIGS  =    1.164    wigner-seitz radius (au A)           
   ENMAX  =  280.000; ENMIN  =  194.016 eV                                      
   ICORE  =        2    local potential                                         
   LCOR   =        T    correct aug charges                                     
   LPAW   =        T    paw PP                                                  
   EAUG   =  335.092                                                            
   DEXC   =     .000                                                            
   RMAX   =    2.867    core radius for proj-oper                               
   RAUG   =    1.300    factor for augmentation sphere                          
   RDEP   =    1.954    radius for radial grids                                 
   QCUT   =   -4.360; QGAM   =    8.721    optimization parameters              
                                                                                
   Description                                                                  
     l     E      TYP  RCUT    TYP  RCUT                                        
     0   .000     23  1.900                                                     
     0   .000     23  1.900                                                     
     1   .000     23  1.900                                                     
     1   .000     23  1.900                                                     
     2   .000     23  1.900                                                     
  local pseudopotential read in
  partial core-charges read in
  atomic valenz-charges read in
  non local Contribution for L=           0  read in
    real space projection operators read in
  non local Contribution for L=           0  read in
    real space projection operators read in
  non local Contribution for L=           1  read in
    real space projection operators read in
  non local Contribution for L=           1  read in
    real space projection operators read in
    PAW grid and wavefunctions read in
 
   number of l-projection  operators is LMAX  =           4
   number of lm-projection operators is LMMAX =           8
 
 WARNING: PSMAXN for non-local potential too small
          PSMAXN should be >   16.2007969712021       NTYP=           1
 PAW_PBE Mo 08Apr2002                   :
 energy of atom  1       EATOM= -217.5180
 kinetic energy error for atom=    0.0001 (will be added to EATOM!!)
  PAW_PBE S 17Jan2003                   :
 energy of atom  2       EATOM= -276.8230
 kinetic energy error for atom=    0.0002 (will be added to EATOM!!)
 
 
 POSCAR: MoS2_mp-2815_computed                   
  positions in cartesian coordinates
  velocities in cartesian coordinates
  No initial velocities read in
 exchange correlation table for  LEXCH =        8
   RHO(1)=    0.500       N(1)  =     2000
   RHO(2)=  100.500       N(2)  =     4000
 


--------------------------------------------------------------------------------------------------------


 ion  position               nearest neighbor table
   1  0.333  0.667  0.138-   3 2.42   2 2.42   2 2.42   3 2.42   3 2.42   2 2.42
   2  0.667  0.333  0.080-   1 2.42   1 2.42   1 2.42
   3  0.667  0.333  0.197-   1 2.42   1 2.42   1 2.42
 
  LATTYP: Found a hexagonal cell.
 ALAT       =     3.1903157300
 C/A-ratio  =     8.4251862746
  
  Lattice vectors:
  
 A1 = (   3.1903157300,   0.0000000000,   0.0000000000)
 A2 = (  -1.5951578650,   2.7628944683,   0.0000000000)
 A3 = (   0.0000000000,   0.0000000000,  26.8790043000)


Analysis of symmetry for initial positions (statically):
=====================================================================
 Subroutine PRICEL returns:
 Original cell was already a primitive cell.
 

 Routine SETGRP: Setting up the symmetry group for a 
 hexagonal supercell.


 Subroutine GETGRP returns: Found 12 space group operations
 (whereof  6 operations were pure point group operations)
 out of a pool of 24 trial point group operations.


The static configuration has the point symmetry C_3v.
 The point group associated with its full space group is D_3h.


Analysis of symmetry for dynamics (positions and initial velocities):
=====================================================================
 Subroutine PRICEL returns:
 Original cell was already a primitive cell.
 

 Routine SETGRP: Setting up the symmetry group for a 
 hexagonal supercell.


 Subroutine GETGRP returns: Found 12 space group operations
 (whereof  6 operations were pure point group operations)
 out of a pool of 24 trial point group operations.


The dynamic configuration has the point symmetry C_3v.
 The point group associated with its full space group is D_3h.


 Subroutine INISYM returns: Found 12 space group operations
 (whereof  6 operations are pure point group operations),
 and found     1 'primitive' translations

 
 
 KPOINTS: k-density: 4.0                          

Automatic generation of k-mesh.
Space group operators:
 irot       det(A)        alpha          n_x          n_y          n_z        tau_x        tau_y        tau_z
    1     1.000000     0.000001     1.000000     0.000000     0.000000     0.000000     0.000000     0.000000
    2     1.000000   120.000000     0.000000     0.000000    -1.000000     0.000000     0.000000     0.000000
    3     1.000000   120.000000     0.000000     0.000000     1.000000     0.000000     0.000000     0.000000
    4    -1.000000   179.999999     1.000000    -0.000000     0.000000     0.000000     0.000000     0.000000
    5    -1.000000   180.000000     0.500000    -0.866025     0.000000     0.000000     0.000000     0.000000
    6    -1.000000   180.000000    -0.500000    -0.866025     0.000000     0.000000     0.000000     0.000000
    7    -1.000000    60.000000     0.000000     0.000000    -1.000000    -0.000000     0.000000     0.276777
    8    -1.000000   180.000000     0.000000     0.000000     1.000000     0.000000     0.000000     0.276777
    9    -1.000000    60.000000     0.000000     0.000000     1.000000     0.000000     0.000001     0.276777
   10     1.000000   180.000000     0.866025    -0.500000     0.000000     0.000000     0.000000     0.276777
   11     1.000000   180.000000     0.000000     1.000000     0.000000     0.000000     0.000000     0.276777
   12     1.000000   179.999999     0.866025     0.500000     0.000000    -0.000000     0.000001     0.276777
 
 Subroutine IBZKPT returns following result:
 ===========================================
 
 Found     10 irreducible k-points:
 
 Following reciprocal coordinates:
            Coordinates               Weight
  0.000000  0.000000  0.000000      1.000000
  0.125000  0.000000  0.000000      6.000000
  0.250000  0.000000  0.000000      6.000000
  0.375000  0.000000  0.000000      6.000000
  0.500000  0.000000  0.000000      3.000000
  0.125000  0.125000  0.000000      6.000000
  0.250000  0.125000  0.000000     12.000000
  0.375000  0.125000  0.000000     12.000000
  0.250000  0.250000  0.000000      6.000000
  0.375000  0.250000  0.000000      6.000000
 
 Following cartesian coordinates:
            Coordinates               Weight
  0.000000  0.000000  0.000000      1.000000
  0.039181  0.022621  0.000000      6.000000
  0.078362  0.045242  0.000000      6.000000
  0.117543  0.067864  0.000000      6.000000
  0.156724  0.090485  0.000000      3.000000
  0.039181  0.067864  0.000000      6.000000
  0.078362  0.090485  0.000000     12.000000
  0.117543  0.113106  0.000000     12.000000
  0.078362  0.135727  0.000000      6.000000
  0.117543  0.158348  0.000000      6.000000
 
 TETIRR: Found     36 inequivalent tetrahedra from      384


--------------------------------------------------------------------------------------------------------




 Dimension of arrays:
   k-points           NKPTS =     10   k-points in BZ     NKDIM =     10   number of bands    NBANDS=     14
   number of dos      NEDOS =    301   number of ions     NIONS =      3
   non local maximal  LDIM  =      6   non local SUM 2l+1 LMDIM =     18
   total plane-waves  NPLWV = 164640
   max r-space proj   IRMAX =      1   max aug-charges    IRDMAX=  44810
   dimension x,y,z NGX =    28 NGY =   28 NGZ =  210
   dimension x,y,z NGXF=    56 NGYF=   56 NGZF=  420
   support grid    NGXF=    56 NGYF=   56 NGZF=  420
   ions per type =               1   2
   NGX,Y,Z   is equivalent  to a cutoff of  14.59, 14.59, 12.99 a.u.
   NGXF,Y,Z  is equivalent  to a cutoff of  29.18, 29.18, 25.98 a.u.

 SYSTEM =  unknown system                          
 POSCAR =  MoS2_mp-2815_computed                   

 Startparameter for this run:
   NWRITE =      2    write-flag & timer
   PREC   = normal    normal or accurate (medium, high low for compatibility)
   ISTART =      0    job   : 0-new  1-cont  2-samecut
   ICHARG =      2    charge: 1-file 2-atom 10-const
   ISPIN  =      1    spin polarized calculation?
   LNONCOLLINEAR =      F non collinear calculations
   LSORBIT =      F    spin-orbit coupling
   INIWAV =      1    electr: 0-lowe 1-rand  2-diag
   LASPH  =      F    aspherical Exc in radial PAW
   METAGGA=      F    non-selfconsistent MetaGGA calc.

 Electronic Relaxation 1
   ENCUT  = 1000.0 eV  73.50 Ry    8.57 a.u.   8.23  8.23 69.31*2*pi/ulx,y,z
   ENINI  = 1000.0     initial cutoff
   ENAUG  =  345.3 eV  augmentation charge cutoff
   NELM   =     60;   NELMIN=  4; NELMDL= -5     # of ELM steps 
   EDIFF  = 0.1E-04   stopping-criterion for ELM
   LREAL  =      F    real-space projection
   NLSPLINE    = F    spline interpolate recip. space projectors
   LCOMPAT=      F    compatible to vasp.4.4
   GGA_COMPAT  = T    GGA compatible to vasp.4.4-vasp.4.6
   LMAXPAW     = -100 max onsite density
   LMAXMIX     =    2 max onsite mixed and CHGCAR
   VOSKOWN=      0    Vosko Wilk Nusair interpolation
   ROPT   =    0.00000   0.00000
 Ionic relaxation
   EDIFFG = 0.1E-03   stopping-criterion for IOM
   NSW    =      0    number of steps for IOM
   NBLOCK =      1;   KBLOCK =      1    inner block; outer block 
   IBRION =     -1    ionic relax: 0-MD 1-quasi-New 2-CG
   NFREE  =      0    steps in history (QN), initial steepest desc. (CG)
   ISIF   =      2    stress and relaxation
   IWAVPR =     10    prediction:  0-non 1-charg 2-wave 3-comb
   ISYM   =      2    0-nonsym 1-usesym 2-fastsym
   LCORR  =      T    Harris-Foulkes like correction to forces

   POTIM  = 0.5000    time-step for ionic-motion
   TEIN   =    0.0    initial temperature
   TEBEG  =    0.0;   TEEND  =   0.0 temperature during run
   SMASS  =  -3.00    Nose mass-parameter (am)
   estimated Nose-frequenzy (Omega)   =  0.10E-29 period in steps =****** mass=  -0.233E-27a.u.
   SCALEE = 1.0000    scale energy and forces
   NPACO  =    256;   APACO  = 16.0  distance and # of slots for P.C.
   PSTRESS=    0.0 pullay stress

  Mass of Ions in am
   POMASS =  95.94 32.07
  Ionic Valenz
   ZVAL   =   6.00  6.00
  Atomic Wigner-Seitz radii
   RWIGS  =  -1.00 -1.00
  virtual crystal weights 
   VCA    =   1.00  1.00
   NELECT =      18.0000    total number of electrons
   NUPDOWN=      -1.0000    fix difference up-down

 DOS related values:
   EMIN   =  10.00;   EMAX   =-10.00  energy-range for DOS
   EFERMI =   0.00
   ISMEAR =    -5;   SIGMA  =   0.20  broadening in eV -4-tet -1-fermi 0-gaus

 Electronic relaxation 2 (details)
   IALGO  =     68    algorithm
   LDIAG  =      T    sub-space diagonalisation (order eigenvalues)
   LSUBROT=      F    optimize rotation matrix (better conditioning)
   TURBO    =      0    0=normal 1=particle mesh
   IRESTART =      0    0=no restart 2=restart with 2 vectors
   NREBOOT  =      0    no. of reboots
   NMIN     =      0    reboot dimension
   EREF     =   0.00    reference energy to select bands
   IMIX   =      4    mixing-type and parameters
     AMIX     =   0.40;   BMIX     =  1.00
     AMIX_MAG =   1.60;   BMIX_MAG =  1.00
     AMIN     =   0.10
     WC   =   100.;   INIMIX=   1;  MIXPRE=   1;  MAXMIX= -45

 Intra band minimization:
   WEIMIN = 0.0000     energy-eigenvalue tresh-hold
   EBREAK =  0.18E-06  absolut break condition
   DEPER  =   0.30     relativ break condition  

   TIME   =   0.40     timestep for ELM

  volume/ion in A,a.u.               =      78.98       532.95
  Fermi-wavevector in a.u.,A,eV,Ry     =   0.693365  1.310270  6.541070  0.480755
  Thomas-Fermi vector in A             =   1.775558
 
 Write flags
   LWAVE        =      F    write WAVECAR
   LDOWNSAMPLE  =      F    k-point downsampling of WAVECAR
   LCHARG       =      T    write CHGCAR
   LVTOT        =      F    write LOCPOT, total local potential
   LVHAR        =      F    write LOCPOT, Hartree potential only
   LELF         =      F    write electronic localiz. function (ELF)
   LORBIT       =      0    0 simple, 1 ext, 2 COOP (PROOUT), +10 PAW based schemes


 Dipole corrections
   LMONO  =      F    monopole corrections only (constant potential shift)
   LDIPOL =      F    correct potential (dipole corrections)
   IDIPOL =      0    1-x, 2-y, 3-z, 4-all directions 
   EPSILON=  1.0000000 bulk dielectric constant

 Exchange correlation treatment:
   GGA     =    --    GGA type
   LEXCH   =     8    internal setting for exchange type
   VOSKOWN=      0    Vosko Wilk Nusair interpolation
   LHFCALC =     F    Hartree Fock is set to
   LHFONE  =     F    Hartree Fock one center treatment
   AEXX    =    0.0000 exact exchange contribution

 Linear response parameters
   LEPSILON=     F    determine dielectric tensor
   LRPA    =     F    only Hartree local field effects (RPA)
   LNABLA  =     F    use nabla operator in PAW spheres
   LVEL    =     F    velocity operator in full k-point grid
   LINTERFAST=   F  fast interpolation
   KINTER  =     0    interpolate to denser k-point grid
   CSHIFT  =0.1000    complex shift for real part using Kramers Kronig
   OMEGAMAX=  -1.0    maximum frequency
   DEG_THRESHOLD= 0.2000000E-02 threshold for treating states as degnerate
   RTIME   =   -0.100 relaxation time in fs
  (WPLASMAI=    0.000 imaginary part of plasma frequency in eV, 0.658/RTIME)
   DFIELD  = 0.0000000 0.0000000 0.0000000 field for delta impulse in time
 
 Orbital magnetization related:
   ORBITALMAG=     F  switch on orbital magnetization
   LCHIMAG   =     F  perturbation theory with respect to B field
   DQ        =  0.001000  dq finite difference perturbation B field
   LLRAUG    =     F  two centre corrections for induced B field



--------------------------------------------------------------------------------------------------------


 Static calculation
 charge density and potential will be updated during run
 non-spin polarized calculation
 RMM-DIIS sequential band-by-band and
  variant of blocked Davidson during initial phase
 perform sub-space diagonalisation
    before iterative eigenvector-optimisation
 modified Broyden-mixing scheme, WC =      100.0
 initial mixing is a Kerker type mixing with AMIX =  0.4000 and BMIX =      1.0000
 Hartree-type preconditioning will be used
 using additional bands            5
 reciprocal scheme for non local part
 use partial core corrections
 calculate Harris-corrections to forces 
   (improved forces if not selfconsistent)
 use gradient corrections 
 use of overlap-Matrix (Vanderbilt PP)
 Fermi weights with tetrahedron method with Bloechl corrections


--------------------------------------------------------------------------------------------------------


  energy-cutoff  :     1000.00
  volume of cell :      236.93
      direct lattice vectors                 reciprocal lattice vectors
     3.190315730  0.000000000  0.000000000     0.313448600  0.180969634  0.000000000
    -1.595157865  2.762894468  0.000000000     0.000000000  0.361939267  0.000000000
     0.000000000  0.000000000 26.879004300     0.000000000  0.000000000  0.037203759

  length of vectors
     3.190315730  3.190315730 26.879004300     0.361939267  0.361939267  0.037203759


 
 k-points in units of 2pi/SCALE and weight: k-density: 4.0                          
   0.00000000  0.00000000  0.00000000       0.016
   0.03918108  0.02262120  0.00000000       0.094
   0.07836215  0.04524241  0.00000000       0.094
   0.11754323  0.06786361  0.00000000       0.094
   0.15672430  0.09048482  0.00000000       0.047
   0.03918108  0.06786361  0.00000000       0.094
   0.07836215  0.09048482  0.00000000       0.188
   0.11754323  0.11310602  0.00000000       0.188
   0.07836215  0.13572723  0.00000000       0.094
   0.11754323  0.15834843  0.00000000       0.094
 
 k-points in reciprocal lattice and weights: k-density: 4.0                          
   0.00000000  0.00000000  0.00000000       0.016
   0.12500000  0.00000000  0.00000000       0.094
   0.25000000  0.00000000  0.00000000       0.094
   0.37500000  0.00000000  0.00000000       0.094
   0.50000000  0.00000000  0.00000000       0.047
   0.12500000  0.12500000  0.00000000       0.094
   0.25000000  0.12500000  0.00000000       0.188
   0.37500000  0.12500000  0.00000000       0.188
   0.25000000  0.25000000  0.00000000       0.094
   0.37500000  0.25000000  0.00000000       0.094
 
 position of ions in fractional coordinates (direct lattice) 
   0.33333300  0.66666700  0.13838872
   0.66666700  0.33333300  0.08016914
   0.66666600  0.33333300  0.19660830
 
 position of ions in cartesian coordinates  (Angst):
  -0.00000160  1.84193057  3.71975108
   1.59515946  0.92096390  2.15486668
   1.59515627  0.92096390  5.28463547
 


--------------------------------------------------------------------------------------------------------


 k-point  1 :   0.0000 0.0000 0.0000  plane waves:   17065
 k-point  2 :   0.1250 0.0000 0.0000  plane waves:   16996
 k-point  3 :   0.2500 0.0000 0.0000  plane waves:   17010
 k-point  4 :   0.3750 0.0000 0.0000  plane waves:   17016
 k-point  5 :   0.5000 0.0000 0.0000  plane waves:   17050
 k-point  6 :   0.1250 0.1250 0.0000  plane waves:   16990
 k-point  7 :   0.2500 0.1250 0.0000  plane waves:   17003
 k-point  8 :   0.3750 0.1250 0.0000  plane waves:   17041
 k-point  9 :   0.2500 0.2500 0.0000  plane waves:   16990
 k-point 10 :   0.3750 0.2500 0.0000  plane waves:   17030

 maximum and minimum number of plane-waves per node :      8534     8486

 maximum number of plane-waves:     17065
 maximum index in each direction: 
   IXMAX=    8   IYMAX=    8   IZMAX=   69
   IXMIN=   -8   IYMIN=   -8   IZMIN=  -69


 parallel 3D FFT for wavefunctions:
    minimum data exchange during FFTs selected (reduces bandwidth)
 parallel 3D FFT for charge:
    minimum data exchange during FFTs selected (reduces bandwidth)


 total amount of memory used by VASP MPI-rank0    99990. kBytes
=======================================================================

   base      :      30000. kBytes
   nonl-proj :      24981. kBytes
   fftplans  :      13593. kBytes
   grid      :      21801. kBytes
   one-center:         31. kBytes
   wavefun   :       9584. kBytes
 
     INWAV:  cpu time    0.0000: real time    0.0000
 Broyden mixing: mesh for mixing (old mesh)
   NGX = 17   NGY = 17   NGZ =139
  (NGX  = 56   NGY  = 56   NGZ  =420)
  gives a total of  40171 points

 initial charge density was supplied:
 charge density of overlapping atoms calculated
 number of electron      18.0000000 magnetization 
 keeping initial charge density in first step


--------------------------------------------------------------------------------------------------------


 Maximum index for augmentation-charges        10819 (set IRDMAX)


--------------------------------------------------------------------------------------------------------


 First call to EWALD:  gamma=   0.286
 Maximum number of real-space cells 6x 6x 1
 Maximum number of reciprocal cells 2x 2x10

    FEWALD:  cpu time    0.0010: real time    0.0016


--------------------------------------- Iteration      1(   1)  ---------------------------------------


    POTLOK:  cpu time    0.3539: real time    0.4543
    SETDIJ:  cpu time    0.0080: real time    0.0082
     EDDAV:  cpu time    1.8437: real time    1.8474
 BZINTS: Fermi energy:  8.118947; 18.000000 electrons
         Band energy:  21.668417;  BLOECHL correction: -0.427795
       DOS:  cpu time    0.0010: real time    0.0011
    --------------------------------------------
      LOOP:  cpu time    2.2067: real time    2.3110

 eigenvalue-minimisations  :   280
 total energy-change (2. order) : 0.1651237E+03  (-0.7985936E+03)
 number of electron      18.0000000 magnetization 
 augmentation part       18.0000000 magnetization 

 Free energy of the ion-electron system (eV)
  ---------------------------------------------------
  alpha Z        PSCENC =        12.51390764
  Ewald energy   TEWEN  =      4286.25630342
  -Hartree energ DENC   =     -4967.71356795
  -exchange      EXHF   =         0.00000000
  -V(xc)+E(xc)   XCENC  =       -36.31055703
  PAW double counting   =       406.88651198     -329.34073203
  entropy T*S    EENTRO =         0.00000000
  eigenvalues    EBANDS =        21.66841704
  atomic energy  EATOM  =       771.16339681
  Solvation  Ediel_sol  =         0.00000000
  ---------------------------------------------------
  free energy    TOTEN  =       165.12367989 eV

  energy without entropy =      165.12367989  energy(sigma->0) =      165.12367989


--------------------------------------------------------------------------------------------------------




--------------------------------------- Iteration      1(   2)  ---------------------------------------


     EDDAV:  cpu time    2.5936: real time    2.5975
 BZINTS: Fermi energy: -0.876332; 18.000000 electrons
         Band energy:-144.880779;  BLOECHL correction:  0.000000
       DOS:  cpu time    0.0000: real time    0.0003
    --------------------------------------------
      LOOP:  cpu time    2.5936: real time    2.5978

 eigenvalue-minimisations  :   454
 total energy-change (2. order) :-0.1665492E+03  (-0.1553284E+03)
 number of electron      18.0000000 magnetization 
 augmentation part       18.0000000 magnetization 

 Free energy of the ion-electron system (eV)
  ---------------------------------------------------
  alpha Z        PSCENC =        12.51390764
  Ewald energy   TEWEN  =      4286.25630342
  -Hartree energ DENC   =     -4967.71356795
  -exchange      EXHF   =         0.00000000
  -V(xc)+E(xc)   XCENC  =       -36.31055703
  PAW double counting   =       406.88651198     -329.34073203
  entropy T*S    EENTRO =         0.00000000
  eigenvalues    EBANDS =      -144.88077936
  atomic energy  EATOM  =       771.16339681
  Solvation  Ediel_sol  =         0.00000000
  ---------------------------------------------------
  free energy    TOTEN  =        -1.42551651 eV

  energy without entropy =       -1.42551651  energy(sigma->0) =       -1.42551651


--------------------------------------------------------------------------------------------------------




--------------------------------------- Iteration      1(   3)  ---------------------------------------


     EDDAV:  cpu time    2.2867: real time    2.2894
 BZINTS: Fermi energy: -3.268077; 18.000000 electrons
         Band energy:-166.299289;  BLOECHL correction:  0.000000
       DOS:  cpu time    0.0000: real time    0.0003
    --------------------------------------------
      LOOP:  cpu time    2.2867: real time    2.2896

 eigenvalue-minimisations  :   378
 total energy-change (2. order) :-0.2141851E+02  (-0.2111895E+02)
 number of electron      18.0000000 magnetization 
 augmentation part       18.0000000 magnetization 

 Free energy of the ion-electron system (eV)
  ---------------------------------------------------
  alpha Z        PSCENC =        12.51390764
  Ewald energy   TEWEN  =      4286.25630342
  -Hartree energ DENC   =     -4967.71356795
  -exchange      EXHF   =         0.00000000
  -V(xc)+E(xc)   XCENC  =       -36.31055703
  PAW double counting   =       406.88651198     -329.34073203
  entropy T*S    EENTRO =         0.00000000
  eigenvalues    EBANDS =      -166.29928856
  atomic energy  EATOM  =       771.16339681
  Solvation  Ediel_sol  =         0.00000000
  ---------------------------------------------------
  free energy    TOTEN  =       -22.84402570 eV

  energy without entropy =      -22.84402570  energy(sigma->0) =      -22.84402570


--------------------------------------------------------------------------------------------------------




--------------------------------------- Iteration      1(   4)  ---------------------------------------


     EDDAV:  cpu time    2.2357: real time    2.2387
 BZINTS: Fermi energy: -3.331266; 18.000000 electrons
         Band energy:-166.851735;  BLOECHL correction:  0.000000
       DOS:  cpu time    0.0010: real time    0.0003
    --------------------------------------------
      LOOP:  cpu time    2.2367: real time    2.2390

 eigenvalue-minimisations  :   378
 total energy-change (2. order) :-0.5524469E+00  (-0.5485504E+00)
 number of electron      18.0000000 magnetization 
 augmentation part       18.0000000 magnetization 

 Free energy of the ion-electron system (eV)
  ---------------------------------------------------
  alpha Z        PSCENC =        12.51390764
  Ewald energy   TEWEN  =      4286.25630342
  -Hartree energ DENC   =     -4967.71356795
  -exchange      EXHF   =         0.00000000
  -V(xc)+E(xc)   XCENC  =       -36.31055703
  PAW double counting   =       406.88651198     -329.34073203
  entropy T*S    EENTRO =         0.00000000
  eigenvalues    EBANDS =      -166.85173550
  atomic energy  EATOM  =       771.16339681
  Solvation  Ediel_sol  =         0.00000000
  ---------------------------------------------------
  free energy    TOTEN  =       -23.39647264 eV

  energy without entropy =      -23.39647264  energy(sigma->0) =      -23.39647264


--------------------------------------------------------------------------------------------------------




--------------------------------------- Iteration      1(   5)  ---------------------------------------


     EDDAV:  cpu time    2.1397: real time    2.1428
 BZINTS: Fermi energy: -3.368939; 18.000000 electrons
         Band energy:-166.865039;  BLOECHL correction:  0.000000
       DOS:  cpu time    0.0000: real time    0.0002
    CHARGE:  cpu time    0.1180: real time    0.1184
    MIXING:  cpu time    0.0110: real time    0.0103
    --------------------------------------------
      LOOP:  cpu time    2.2687: real time    2.2718

 eigenvalue-minimisations  :   360
 total energy-change (2. order) :-0.1330375E-01  (-0.1330044E-01)
 number of electron      18.0000001 magnetization 
 augmentation part       -0.9449015 magnetization 

 Broyden mixing:
  rms(total) = 0.68894E+00    rms(broyden)= 0.68894E+00
  rms(prec ) = 0.74622E+00
  weight for this iteration     100.00

 Free energy of the ion-electron system (eV)
  ---------------------------------------------------
  alpha Z        PSCENC =        12.51390764
  Ewald energy   TEWEN  =      4286.25630342
  -Hartree energ DENC   =     -4967.71356795
  -exchange      EXHF   =         0.00000000
  -V(xc)+E(xc)   XCENC  =       -36.31055703
  PAW double counting   =       406.88651198     -329.34073203
  entropy T*S    EENTRO =         0.00000000
  eigenvalues    EBANDS =      -166.86503925
  atomic energy  EATOM  =       771.16339681
  Solvation  Ediel_sol  =         0.00000000
  ---------------------------------------------------
  free energy    TOTEN  =       -23.40977640 eV

  energy without entropy =      -23.40977640  energy(sigma->0) =      -23.40977640


--------------------------------------------------------------------------------------------------------




--------------------------------------- Iteration      1(   6)  ---------------------------------------


    POTLOK:  cpu time    0.3409: real time    0.3442
    SETDIJ:  cpu time    0.0080: real time    0.0072
    EDDIAG:  cpu time    0.3499: real time    0.3514
  RMM-DIIS:  cpu time    1.7297: real time    1.7286
    ORTHCH:  cpu time    0.0170: real time    0.0171
 BZINTS: Fermi energy: -4.364984; 18.000000 electrons
         Band energy:-167.358477;  BLOECHL correction:  0.000000
       DOS:  cpu time    0.0000: real time    0.0003
    CHARGE:  cpu time    0.1250: real time    0.1259
    MIXING:  cpu time    0.0110: real time    0.0103
    --------------------------------------------
      LOOP:  cpu time    2.5816: real time    2.5848

 eigenvalue-minimisations  :   296
 total energy-change (2. order) : 0.1160128E+01  (-0.5440254E+00)
 number of electron      18.0000001 magnetization 
 augmentation part       -0.3981385 magnetization 

 Broyden mixing:
  rms(total) = 0.26150E+00    rms(broyden)= 0.26150E+00
  rms(prec ) = 0.30718E+00
  weight for this iteration     100.00

 eigenvalues of (default mixing * dielectric matrix)
  average eigenvalue GAMMA=   0.8338
  0.8338

 Free energy of the ion-electron system (eV)
  ---------------------------------------------------
  alpha Z        PSCENC =        12.51390764
  Ewald energy   TEWEN  =      4286.25630342
  -Hartree energ DENC   =     -4966.05732335
  -exchange      EXHF   =         0.00000000
  -V(xc)+E(xc)   XCENC  =       -35.42319426
  PAW double counting   =       423.88371518     -347.22797685
  entropy T*S    EENTRO =         0.00000000
  eigenvalues    EBANDS =      -167.35847729
  atomic energy  EATOM  =       771.16339681
  Solvation  Ediel_sol  =         0.00000000
  ---------------------------------------------------
  free energy    TOTEN  =       -22.24964869 eV

  energy without entropy =      -22.24964869  energy(sigma->0) =      -22.24964869


--------------------------------------------------------------------------------------------------------




--------------------------------------- Iteration      1(   7)  ---------------------------------------


    POTLOK:  cpu time    0.3319: real time    0.3352
    SETDIJ:  cpu time    0.0080: real time    0.0074
    EDDIAG:  cpu time    0.3479: real time    0.3487
  RMM-DIIS:  cpu time    1.6368: real time    1.6353
    ORTHCH:  cpu time    0.0160: real time    0.0172
 BZINTS: Fermi energy: -3.801509; 18.000000 electrons
         Band energy:-161.211240;  BLOECHL correction:  0.000000
       DOS:  cpu time    0.0010: real time    0.0003
    CHARGE:  cpu time    0.1230: real time    0.1231
    MIXING:  cpu time    0.0100: real time    0.0106
    --------------------------------------------
      LOOP:  cpu time    2.4746: real time    2.4779

 eigenvalue-minimisations  :   290
 total energy-change (2. order) : 0.3853839E+00  (-0.5525053E-01)
 number of electron      18.0000001 magnetization 
 augmentation part       -0.5982071 magnetization 

 Broyden mixing:
  rms(total) = 0.14987E+00    rms(broyden)= 0.14987E+00
  rms(prec ) = 0.15822E+00
  weight for this iteration     100.00

 eigenvalues of (default mixing * dielectric matrix)
  average eigenvalue GAMMA=   1.3610
  0.6661  2.0560

 Free energy of the ion-electron system (eV)
  ---------------------------------------------------
  alpha Z        PSCENC =        12.51390764
  Ewald energy   TEWEN  =      4286.25630342
  -Hartree energ DENC   =     -4971.44428447
  -exchange      EXHF   =         0.00000000
  -V(xc)+E(xc)   XCENC  =       -35.56652680
  PAW double counting   =       441.26689829     -364.84272012
  entropy T*S    EENTRO =         0.00000000
  eigenvalues    EBANDS =      -161.21123959
  atomic energy  EATOM  =       771.16339681
  Solvation  Ediel_sol  =         0.00000000
  ---------------------------------------------------
  free energy    TOTEN  =       -21.86426481 eV

  energy without entropy =      -21.86426481  energy(sigma->0) =      -21.86426481


--------------------------------------------------------------------------------------------------------




--------------------------------------- Iteration      1(   8)  ---------------------------------------


    POTLOK:  cpu time    0.3289: real time    0.3314
    SETDIJ:  cpu time    0.0080: real time    0.0073
    EDDIAG:  cpu time    0.3499: real time    0.3505
  RMM-DIIS:  cpu time    1.7977: real time    1.7968
    ORTHCH:  cpu time    0.0170: real time    0.0171
 BZINTS: Fermi energy: -3.706606; 18.000000 electrons
         Band energy:-156.999500;  BLOECHL correction:  0.000000
       DOS:  cpu time    0.0000: real time    0.0003
    CHARGE:  cpu time    0.1250: real time    0.1254
    MIXING:  cpu time    0.0120: real time    0.0114
    --------------------------------------------
      LOOP:  cpu time    2.6386: real time    2.6402

 eigenvalue-minimisations  :   309
 total energy-change (2. order) : 0.5987798E-01  (-0.2331921E-01)
 number of electron      18.0000001 magnetization 
 augmentation part       -0.5513661 magnetization 

 Broyden mixing:
  rms(total) = 0.35582E-01    rms(broyden)= 0.35582E-01
  rms(prec ) = 0.37931E-01
  weight for this iteration     100.00

 eigenvalues of (default mixing * dielectric matrix)
  average eigenvalue GAMMA=   1.5001
  1.9177  1.9177  0.6647

 Free energy of the ion-electron system (eV)
  ---------------------------------------------------
  alpha Z        PSCENC =        12.51390764
  Ewald energy   TEWEN  =      4286.25630342
  -Hartree energ DENC   =     -4975.35132759
  -exchange      EXHF   =         0.00000000
  -V(xc)+E(xc)   XCENC  =       -35.29531164
  PAW double counting   =       464.73897016     -388.83082520
  entropy T*S    EENTRO =         0.00000000
  eigenvalues    EBANDS =      -156.99950043
  atomic energy  EATOM  =       771.16339681
  Solvation  Ediel_sol  =         0.00000000
  ---------------------------------------------------
  free energy    TOTEN  =       -21.80438683 eV

  energy without entropy =      -21.80438683  energy(sigma->0) =      -21.80438683


--------------------------------------------------------------------------------------------------------




--------------------------------------- Iteration      1(   9)  ---------------------------------------


    POTLOK:  cpu time    0.3289: real time    0.3337
    SETDIJ:  cpu time    0.0080: real time    0.0073
    EDDIAG:  cpu time    0.3609: real time    0.3603
  RMM-DIIS:  cpu time    1.9817: real time    1.9813
    ORTHCH:  cpu time    0.0160: real time    0.0170
 BZINTS: Fermi energy: -3.634727; 18.000000 electrons
         Band energy:-155.677585;  BLOECHL correction:  0.000000
       DOS:  cpu time    0.0000: real time    0.0003
    CHARGE:  cpu time    0.1200: real time    0.1198
    MIXING:  cpu time    0.0110: real time    0.0111
    --------------------------------------------
      LOOP:  cpu time    2.8266: real time    2.8307

 eigenvalue-minimisations  :   335
 total energy-change (2. order) : 0.4848067E-02  (-0.8820068E-03)
 number of electron      18.0000001 magnetization 
 augmentation part       -0.5460216 magnetization 

 Broyden mixing:
  rms(total) = 0.96407E-02    rms(broyden)= 0.96407E-02
  rms(prec ) = 0.11897E-01
  weight for this iteration     100.00

 eigenvalues of (default mixing * dielectric matrix)
  average eigenvalue GAMMA=   1.5069
  0.6672  1.0472  2.4342  1.8790

 Free energy of the ion-electron system (eV)
  ---------------------------------------------------
  alpha Z        PSCENC =        12.51390764
  Ewald energy   TEWEN  =      4286.25630342
  -Hartree energ DENC   =     -4976.64221615
  -exchange      EXHF   =         0.00000000
  -V(xc)+E(xc)   XCENC  =       -35.24076335
  PAW double counting   =       470.14954048     -394.32212300
  entropy T*S    EENTRO =         0.00000000
  eigenvalues    EBANDS =      -155.67758462
  atomic energy  EATOM  =       771.16339681
  Solvation  Ediel_sol  =         0.00000000
  ---------------------------------------------------
  free energy    TOTEN  =       -21.79953876 eV

  energy without entropy =      -21.79953876  energy(sigma->0) =      -21.79953876


--------------------------------------------------------------------------------------------------------




--------------------------------------- Iteration      1(  10)  ---------------------------------------


    POTLOK:  cpu time    0.3210: real time    0.3217
    SETDIJ:  cpu time    0.0070: real time    0.0072
    EDDIAG:  cpu time    0.3429: real time    0.3428
  RMM-DIIS:  cpu time    1.9157: real time    1.9150
    ORTHCH:  cpu time    0.0170: real time    0.0170
 BZINTS: Fermi energy: -3.577382; 18.000000 electrons
         Band energy:-154.551318;  BLOECHL correction:  0.000000
       DOS:  cpu time    0.0000: real time    0.0003
    CHARGE:  cpu time    0.1170: real time    0.1171
    MIXING:  cpu time    0.0110: real time    0.0103
    --------------------------------------------
      LOOP:  cpu time    2.7316: real time    2.7314

 eigenvalue-minimisations  :   336
 total energy-change (2. order) : 0.7497872E-03  (-0.1719587E-03)
 number of electron      18.0000001 magnetization 
 augmentation part       -0.5506848 magnetization 

 Broyden mixing:
  rms(total) = 0.44169E-02    rms(broyden)= 0.44169E-02
  rms(prec ) = 0.60650E-02
  weight for this iteration     100.00

 eigenvalues of (default mixing * dielectric matrix)
  average eigenvalue GAMMA=   1.6687
  0.6679  1.0359  2.1666  2.2365  2.2365

 Free energy of the ion-electron system (eV)
  ---------------------------------------------------
  alpha Z        PSCENC =        12.51390764
  Ewald energy   TEWEN  =      4286.25630342
  -Hartree energ DENC   =     -4977.75872946
  -exchange      EXHF   =         0.00000000
  -V(xc)+E(xc)   XCENC  =       -35.21997356
  PAW double counting   =       472.37714119     -396.57951698
  entropy T*S    EENTRO =         0.00000000
  eigenvalues    EBANDS =      -154.55131804
  atomic energy  EATOM  =       771.16339681
  Solvation  Ediel_sol  =         0.00000000
  ---------------------------------------------------
  free energy    TOTEN  =       -21.79878897 eV

  energy without entropy =      -21.79878897  energy(sigma->0) =      -21.79878897


--------------------------------------------------------------------------------------------------------




--------------------------------------- Iteration      1(  11)  ---------------------------------------


    POTLOK:  cpu time    0.2780: real time    0.2828
    SETDIJ:  cpu time    0.0080: real time    0.0065
    EDDIAG:  cpu time    0.3250: real time    0.3259
  RMM-DIIS:  cpu time    1.8357: real time    1.8377
    ORTHCH:  cpu time    0.0170: real time    0.0170
 BZINTS: Fermi energy: -3.519912; 18.000000 electrons
         Band energy:-153.423422;  BLOECHL correction:  0.000000
       DOS:  cpu time    0.0000: real time    0.0003
    CHARGE:  cpu time    0.1220: real time    0.1218
    MIXING:  cpu time    0.0110: real time    0.0118
    --------------------------------------------
      LOOP:  cpu time    2.5966: real time    2.6037

 eigenvalue-minimisations  :   315
 total energy-change (2. order) : 0.9522614E-04  (-0.1686429E-03)
 number of electron      18.0000001 magnetization 
 augmentation part       -0.5468504 magnetization 

 Broyden mixing:
  rms(total) = 0.55734E-02    rms(broyden)= 0.55734E-02
  rms(prec ) = 0.64153E-02
  weight for this iteration     100.00

 eigenvalues of (default mixing * dielectric matrix)
  average eigenvalue GAMMA=   1.6720
  2.9217  2.6733  0.6685  0.9315  1.4185  1.4185

 Free energy of the ion-electron system (eV)
  ---------------------------------------------------
  alpha Z        PSCENC =        12.51390764
  Ewald energy   TEWEN  =      4286.25630342
  -Hartree energ DENC   =     -4978.90987577
  -exchange      EXHF   =         0.00000000
  -V(xc)+E(xc)   XCENC  =       -35.20611926
  PAW double counting   =       471.82444171     -396.01732654
  entropy T*S    EENTRO =         0.00000000
  eigenvalues    EBANDS =      -153.42342176
  atomic energy  EATOM  =       771.16339681
  Solvation  Ediel_sol  =         0.00000000
  ---------------------------------------------------
  free energy    TOTEN  =       -21.79869375 eV

  energy without entropy =      -21.79869375  energy(sigma->0) =      -21.79869375


--------------------------------------------------------------------------------------------------------




--------------------------------------- Iteration      1(  12)  ---------------------------------------


    POTLOK:  cpu time    0.3239: real time    0.3258
    SETDIJ:  cpu time    0.0070: real time    0.0071
    EDDIAG:  cpu time    0.3429: real time    0.3431
  RMM-DIIS:  cpu time    1.7777: real time    1.7769
    ORTHCH:  cpu time    0.0170: real time    0.0169
 BZINTS: Fermi energy: -3.484759; 18.000000 electrons
         Band energy:-152.768801;  BLOECHL correction:  0.000000
       DOS:  cpu time    0.0000: real time    0.0003
    CHARGE:  cpu time    0.1180: real time    0.1172
    MIXING:  cpu time    0.0120: real time    0.0126
    --------------------------------------------
      LOOP:  cpu time    2.5986: real time    2.5999

 eigenvalue-minimisations  :   303
 total energy-change (2. order) : 0.2178380E-03  (-0.5577501E-04)
 number of electron      18.0000001 magnetization 
 augmentation part       -0.5497095 magnetization 

 Broyden mixing:
  rms(total) = 0.17769E-02    rms(broyden)= 0.17769E-02
  rms(prec ) = 0.23661E-02
  weight for this iteration     100.00

 eigenvalues of (default mixing * dielectric matrix)
  average eigenvalue GAMMA=   1.9404
  3.8416  2.7105  2.7105  0.6685  0.9622  1.4537  1.2358

 Free energy of the ion-electron system (eV)
  ---------------------------------------------------
  alpha Z        PSCENC =        12.51390764
  Ewald energy   TEWEN  =      4286.25630342
  -Hartree energ DENC   =     -4979.56982824
  -exchange      EXHF   =         0.00000000
  -V(xc)+E(xc)   XCENC  =       -35.20300959
  PAW double counting   =       471.99420338     -396.18464879
  entropy T*S    EENTRO =         0.00000000
  eigenvalues    EBANDS =      -152.76880055
  atomic energy  EATOM  =       771.16339681
  Solvation  Ediel_sol  =         0.00000000
  ---------------------------------------------------
  free energy    TOTEN  =       -21.79847591 eV

  energy without entropy =      -21.79847591  energy(sigma->0) =      -21.79847591


--------------------------------------------------------------------------------------------------------




--------------------------------------- Iteration      1(  13)  ---------------------------------------


    POTLOK:  cpu time    0.3359: real time    0.3392
    SETDIJ:  cpu time    0.0070: real time    0.0072
    EDDIAG:  cpu time    0.3509: real time    0.3513
  RMM-DIIS:  cpu time    1.6467: real time    1.6455
    ORTHCH:  cpu time    0.0170: real time    0.0171
 BZINTS: Fermi energy: -3.446108; 18.000000 electrons
         Band energy:-152.052809;  BLOECHL correction:  0.000000
       DOS:  cpu time    0.0000: real time    0.0003
    CHARGE:  cpu time    0.1280: real time    0.1281
    MIXING:  cpu time    0.0130: real time    0.0130
    --------------------------------------------
      LOOP:  cpu time    2.4986: real time    2.5016

 eigenvalue-minimisations  :   282
 total energy-change (2. order) :-0.2773975E-03  (-0.1567179E-04)
 number of electron      18.0000001 magnetization 
 augmentation part       -0.5480850 magnetization 

 Broyden mixing:
  rms(total) = 0.19915E-02    rms(broyden)= 0.19915E-02
  rms(prec ) = 0.22432E-02
  weight for this iteration     100.00

 eigenvalues of (default mixing * dielectric matrix)
  average eigenvalue GAMMA=   1.9033
  4.7483  2.7069  2.3750  1.4206  1.4206  0.6686  0.9432  0.9432

 Free energy of the ion-electron system (eV)
  ---------------------------------------------------
  alpha Z        PSCENC =        12.51390764
  Ewald energy   TEWEN  =      4286.25630342
  -Hartree energ DENC   =     -4980.28793877
  -exchange      EXHF   =         0.00000000
  -V(xc)+E(xc)   XCENC  =       -35.19616281
  PAW double counting   =       471.93917488     -396.13462540
  entropy T*S    EENTRO =         0.00000000
  eigenvalues    EBANDS =      -152.05280909
  atomic energy  EATOM  =       771.16339681
  Solvation  Ediel_sol  =         0.00000000
  ---------------------------------------------------
  free energy    TOTEN  =       -21.79875331 eV

  energy without entropy =      -21.79875331  energy(sigma->0) =      -21.79875331


--------------------------------------------------------------------------------------------------------




--------------------------------------- Iteration      1(  14)  ---------------------------------------


    POTLOK:  cpu time    0.3359: real time    0.3405
    SETDIJ:  cpu time    0.0080: real time    0.0072
    EDDIAG:  cpu time    0.3479: real time    0.3469
  RMM-DIIS:  cpu time    1.4858: real time    1.4857
    ORTHCH:  cpu time    0.0160: real time    0.0167
 BZINTS: Fermi energy: -3.437281; 18.000000 electrons
         Band energy:-151.897103;  BLOECHL correction:  0.000000
       DOS:  cpu time    0.0000: real time    0.0003
    CHARGE:  cpu time    0.1260: real time    0.1263
    MIXING:  cpu time    0.0150: real time    0.0136
    --------------------------------------------
      LOOP:  cpu time    2.3346: real time    2.3371

 eigenvalue-minimisations  :   254
 total energy-change (2. order) :-0.3631070E-04  (-0.2685480E-05)
 number of electron      18.0000001 magnetization 
 augmentation part       -0.5492415 magnetization 

 Broyden mixing:
  rms(total) = 0.50202E-03    rms(broyden)= 0.50202E-03
  rms(prec ) = 0.69092E-03
  weight for this iteration     100.00

 eigenvalues of (default mixing * dielectric matrix)
  average eigenvalue GAMMA=   2.1576
  6.4290  2.9579  2.3857  2.3857  1.5085  0.6687  1.1825  0.9501  0.9501

 Free energy of the ion-electron system (eV)
  ---------------------------------------------------
  alpha Z        PSCENC =        12.51390764
  Ewald energy   TEWEN  =      4286.25630342
  -Hartree energ DENC   =     -4980.44606289
  -exchange      EXHF   =         0.00000000
  -V(xc)+E(xc)   XCENC  =       -35.19830720
  PAW double counting   =       471.75979202     -395.95071674
  entropy T*S    EENTRO =         0.00000000
  eigenvalues    EBANDS =      -151.89710269
  atomic energy  EATOM  =       771.16339681
  Solvation  Ediel_sol  =         0.00000000
  ---------------------------------------------------
  free energy    TOTEN  =       -21.79878962 eV

  energy without entropy =      -21.79878962  energy(sigma->0) =      -21.79878962


--------------------------------------------------------------------------------------------------------




--------------------------------------- Iteration      1(  15)  ---------------------------------------


    POTLOK:  cpu time    0.3439: real time    0.3482
    SETDIJ:  cpu time    0.0080: real time    0.0073
    EDDIAG:  cpu time    0.3559: real time    0.3563
  RMM-DIIS:  cpu time    1.2078: real time    1.2069
    ORTHCH:  cpu time    0.0160: real time    0.0170
 BZINTS: Fermi energy: -3.428138; 18.000000 electrons
         Band energy:-151.742703;  BLOECHL correction:  0.000000
       DOS:  cpu time    0.0000: real time    0.0003
    CHARGE:  cpu time    0.1220: real time    0.1220
    MIXING:  cpu time    0.0140: real time    0.0136
    --------------------------------------------
      LOOP:  cpu time    2.0677: real time    2.0715

 eigenvalue-minimisations  :   198
 total energy-change (2. order) :-0.1138162E-03  (-0.1140932E-05)
 number of electron      18.0000001 magnetization 
 augmentation part       -0.5490132 magnetization 

 Broyden mixing:
  rms(total) = 0.27918E-03    rms(broyden)= 0.27918E-03
  rms(prec ) = 0.37348E-03
  weight for this iteration     100.00

 eigenvalues of (default mixing * dielectric matrix)
  average eigenvalue GAMMA=   2.1420
  6.4985  3.5603  2.6176  1.7682  1.7682  1.5389  0.6687  1.0578  1.0089  0.9332

 Free energy of the ion-electron system (eV)
  ---------------------------------------------------
  alpha Z        PSCENC =        12.51390764
  Ewald energy   TEWEN  =      4286.25630342
  -Hartree energ DENC   =     -4980.60062116
  -exchange      EXHF   =         0.00000000
  -V(xc)+E(xc)   XCENC  =       -35.19813423
  PAW double counting   =       471.78629327     -395.97734598
  entropy T*S    EENTRO =         0.00000000
  eigenvalues    EBANDS =      -151.74270322
  atomic energy  EATOM  =       771.16339681
  Solvation  Ediel_sol  =         0.00000000
  ---------------------------------------------------
  free energy    TOTEN  =       -21.79890343 eV

  energy without entropy =      -21.79890343  energy(sigma->0) =      -21.79890343


--------------------------------------------------------------------------------------------------------




--------------------------------------- Iteration      1(  16)  ---------------------------------------


    POTLOK:  cpu time    0.3329: real time    0.3354
    SETDIJ:  cpu time    0.0080: real time    0.0071
    EDDIAG:  cpu time    0.3479: real time    0.3487
  RMM-DIIS:  cpu time    1.1848: real time    1.1840
    ORTHCH:  cpu time    0.0170: real time    0.0169
 BZINTS: Fermi energy: -3.424185; 18.000000 electrons
         Band energy:-151.679939;  BLOECHL correction:  0.000000
       DOS:  cpu time    0.0000: real time    0.0003
    CHARGE:  cpu time    0.1200: real time    0.1200
    MIXING:  cpu time    0.0140: real time    0.0144
    --------------------------------------------
      LOOP:  cpu time    2.0247: real time    2.0268

 eigenvalue-minimisations  :   185
 total energy-change (2. order) :-0.3519901E-04  (-0.4476056E-06)
 number of electron      18.0000001 magnetization 
 augmentation part       -0.5491424 magnetization 

 Broyden mixing:
  rms(total) = 0.17151E-03    rms(broyden)= 0.17151E-03
  rms(prec ) = 0.21759E-03
  weight for this iteration     100.00

 eigenvalues of (default mixing * dielectric matrix)
  average eigenvalue GAMMA=   2.2950
  7.3017  3.8822  2.9869  2.6188  2.1496  1.5547  0.6687  1.1102  1.0751  0.9756
  0.9223

 Free energy of the ion-electron system (eV)
  ---------------------------------------------------
  alpha Z        PSCENC =        12.51390764
  Ewald energy   TEWEN  =      4286.25630342
  -Hartree energ DENC   =     -4980.66251236
  -exchange      EXHF   =         0.00000000
  -V(xc)+E(xc)   XCENC  =       -35.19799966
  PAW double counting   =       471.84259962     -396.03469471
  entropy T*S    EENTRO =         0.00000000
  eigenvalues    EBANDS =      -151.67993940
  atomic energy  EATOM  =       771.16339681
  Solvation  Ediel_sol  =         0.00000000
  ---------------------------------------------------
  free energy    TOTEN  =       -21.79893863 eV

  energy without entropy =      -21.79893863  energy(sigma->0) =      -21.79893863


--------------------------------------------------------------------------------------------------------




--------------------------------------- Iteration      1(  17)  ---------------------------------------


    POTLOK:  cpu time    0.3279: real time    0.3311
    SETDIJ:  cpu time    0.0080: real time    0.0072
    EDDIAG:  cpu time    0.3429: real time    0.3430
  RMM-DIIS:  cpu time    1.0658: real time    1.0652
    ORTHCH:  cpu time    0.0160: real time    0.0170
 BZINTS: Fermi energy: -3.422471; 18.000000 electrons
         Band energy:-151.642515;  BLOECHL correction:  0.000000
       DOS:  cpu time    0.0000: real time    0.0003
    CHARGE:  cpu time    0.1240: real time    0.1241
    MIXING:  cpu time    0.0160: real time    0.0147
    --------------------------------------------
      LOOP:  cpu time    1.9007: real time    1.9026

 eigenvalue-minimisations  :   162
 total energy-change (2. order) :-0.4306381E-04  (-0.3224389E-06)
 number of electron      18.0000001 magnetization 
 augmentation part       -0.5491614 magnetization 

 Broyden mixing:
  rms(total) = 0.13697E-03    rms(broyden)= 0.13697E-03
  rms(prec ) = 0.15859E-03
  weight for this iteration     100.00

 eigenvalues of (default mixing * dielectric matrix)
  average eigenvalue GAMMA=   2.3202
  7.7338  4.9587  2.9246  2.4884  2.1130  1.4968  1.4968  0.6687  1.0484  1.0484
  0.9324  0.9324

 Free energy of the ion-electron system (eV)
  ---------------------------------------------------
  alpha Z        PSCENC =        12.51390764
  Ewald energy   TEWEN  =      4286.25630342
  -Hartree energ DENC   =     -4980.70081464
  -exchange      EXHF   =         0.00000000
  -V(xc)+E(xc)   XCENC  =       -35.19814813
  PAW double counting   =       471.79785758     -395.98896984
  entropy T*S    EENTRO =         0.00000000
  eigenvalues    EBANDS =      -151.64251455
  atomic energy  EATOM  =       771.16339681
  Solvation  Ediel_sol  =         0.00000000
  ---------------------------------------------------
  free energy    TOTEN  =       -21.79898170 eV

  energy without entropy =      -21.79898170  energy(sigma->0) =      -21.79898170


--------------------------------------------------------------------------------------------------------




--------------------------------------- Iteration      1(  18)  ---------------------------------------


    POTLOK:  cpu time    0.3349: real time    0.3386
    SETDIJ:  cpu time    0.0080: real time    0.0072
    EDDIAG:  cpu time    0.3499: real time    0.3498
  RMM-DIIS:  cpu time    0.8969: real time    0.8968
    ORTHCH:  cpu time    0.0160: real time    0.0172
 BZINTS: Fermi energy: -3.422605; 18.000000 electrons
         Band energy:-151.643373;  BLOECHL correction:  0.000000
       DOS:  cpu time    0.0010: real time    0.0002
    --------------------------------------------
      LOOP:  cpu time    1.6068: real time    1.6098

 eigenvalue-minimisations  :    86
 total energy-change (2. order) :-0.7337878E-05  (-0.4520887E-07)
 number of electron      18.0000001 magnetization 
 augmentation part       -0.5491614 magnetization 

 Free energy of the ion-electron system (eV)
  ---------------------------------------------------
  alpha Z        PSCENC =        12.51390764
  Ewald energy   TEWEN  =      4286.25630342
  -Hartree energ DENC   =     -4980.69978222
  -exchange      EXHF   =         0.00000000
  -V(xc)+E(xc)   XCENC  =       -35.19812746
  PAW double counting   =       471.80676242     -395.99807640
  entropy T*S    EENTRO =         0.00000000
  eigenvalues    EBANDS =      -151.64337325
  atomic energy  EATOM  =       771.16339681
  Solvation  Ediel_sol  =         0.00000000
  ---------------------------------------------------
  free energy    TOTEN  =       -21.79898904 eV

  energy without entropy =      -21.79898904  energy(sigma->0) =      -21.79898904


--------------------------------------------------------------------------------------------------------




 average (electrostatic) potential at core
  the test charge radii are     1.2296  0.9698
  (the norm of the test charge is              1.0000)
       1 -46.8733       2 -94.7158       3 -94.7158
 
 
 
 E-fermi :  -3.4226     XC(G=0):  -2.8685     alpha+bet : -2.6672


 k-point     1 :       0.0000    0.0000    0.0000
  band No.  band energies     occupation 
      1     -17.4635      2.00000
      2     -16.2555      2.00000
      3      -8.9844      2.00000
      4      -6.0237      2.00000
      5      -6.0236      2.00000
      6      -5.1623      2.00000
      7      -4.9181      2.00000
      8      -4.9181      2.00000
      9      -3.4419      2.00000
     10      -0.6704      0.00000
     11      -0.6704      0.00000
     12      -0.4467      0.00000
     13      -0.4467      0.00000
     14       1.9941      0.00000

 k-point     2 :       0.1250    0.0000    0.0000
  band No.  band energies     occupation 
      1     -17.2494      2.00000
      2     -16.1531      2.00000
      3      -8.7399      2.00000
      4      -6.4871      2.00000
      5      -5.9704      2.00000
      6      -5.7892      2.00000
      7      -5.2538      2.00000
      8      -4.4848      2.00000
      9      -3.5804      2.00000
     10      -0.9504      0.00000
     11      -0.8846      0.00000
     12      -0.6833      0.00000
     13      -0.3156      0.00000
     14       2.3683      0.00000

 k-point     3 :       0.2500    0.0000    0.0000
  band No.  band energies     occupation 
      1     -16.6806      2.00000
      2     -15.8843      2.00000
      3      -8.3738      2.00000
      4      -7.2136      2.00000
      5      -6.9512      2.00000
      6      -5.8889      2.00000
      7      -5.2022      2.00000
      8      -4.7364      2.00000
      9      -4.1483      2.00000
     10      -1.2746      0.00000
     11      -1.0980      0.00000
     12      -0.5559      0.00000
     13       0.3014      0.00000
     14       3.1776      0.00000

 k-point     4 :       0.3750    0.0000    0.0000
  band No.  band energies     occupation 
      1     -16.0055      2.00000
      2     -15.5759      2.00000
      3      -8.8111      2.00000
      4      -7.8186      2.00000
      5      -7.3465      2.00000
      6      -6.3862      2.00000
      7      -5.1457      2.00000
      8      -4.6116      2.00000
      9      -4.3435      2.00000
     10      -1.2794      0.00000
     11      -1.0006      0.00000
     12       0.1626      0.00000
     13       0.6947      0.00000
     14       3.7011      0.00000

 k-point     5 :       0.5000    0.0000    0.0000
  band No.  band energies     occupation 
      1     -15.6773      2.00000
      2     -15.4326      2.00000
      3      -9.1437      2.00000
      4      -8.1835      2.00000
      5      -7.4728      2.00000
      6      -6.5668      2.00000
      7      -5.2846      2.00000
      8      -4.3846      2.00000
      9      -4.0627      2.00000
     10      -1.2571      0.00000
     11      -0.7412      0.00000
     12       0.4612      0.00000
     13       0.8101      0.00000
     14       2.7405      0.00000

 k-point     6 :       0.1250    0.1250    0.0000
  band No.  band energies     occupation 
      1     -16.8566      2.00000
      2     -15.9661      2.00000
      3      -8.3926      2.00000
      4      -7.0511      2.00000
      5      -6.5326      2.00000
      6      -6.0677      2.00000
      7      -5.4498      2.00000
      8      -4.3504      2.00000
      9      -3.9522      2.00000
     10      -1.3497      0.00000
     11      -0.9715      0.00000
     12      -0.9597      0.00000
     13       0.2792      0.00000
     14       2.9520      0.00000

 k-point     7 :       0.2500    0.1250    0.0000
  band No.  band energies     occupation 
      1     -16.2230      2.00000
      2     -15.6675      2.00000
      3      -8.4554      2.00000
      4      -7.4778      2.00000
      5      -7.2146      2.00000
      6      -6.5720      2.00000
      7      -5.3503      2.00000
      8      -4.7126      2.00000
      9      -4.2359      2.00000
     10      -1.4330      0.00000
     11      -0.9845      0.00000
     12      -0.4897      0.00000
     13       0.7871      0.00000
     14       3.9291      0.00000

 k-point     8 :       0.3750    0.1250    0.0000
  band No.  band energies     occupation 
      1     -15.6925      2.00000
      2     -15.4236      2.00000
      3      -8.8564      2.00000
      4      -8.2408      2.00000
      5      -7.3450      2.00000
      6      -6.5888      2.00000
      7      -5.3352      2.00000
      8      -5.1944      2.00000
      9      -3.9090      2.00000
     10      -1.2383      0.00000
     11      -0.7280      0.00000
     12       0.1319      0.00000
     13       0.8208      0.00000
     14       3.2673      0.00000

 k-point     9 :       0.2500    0.2500    0.0000
  band No.  band energies     occupation 
      1     -15.7075      2.00000
      2     -15.4146      2.00000
      3      -8.4960      2.00000
      4      -8.2916      2.00000
      5      -7.0179      2.00000
      6      -6.6371      2.00000
      7      -6.3180      2.00000
      8      -5.0610      2.00000
      9      -3.9378      2.00000
     10      -1.2893      0.00000
     11      -0.6782      0.00000
     12      -0.3666      0.00000
     13       1.1088      0.00000
     14       4.0997      0.00000

 k-point    10 :       0.3750    0.2500    0.0000
  band No.  band energies     occupation 
      1     -15.4726      2.00000
      2     -15.2955      2.00000
      3      -8.6760      2.00000
      4      -8.3270      2.00000
      5      -7.3022      2.00000
      6      -6.6396      2.00000
      7      -6.4095      2.00000
      8      -5.4472      2.00000
      9      -3.5704      2.00000
     10      -1.6149      0.00000
     11      -0.3082      0.00000
     12      -0.1276      0.00000
     13       1.2541      0.00000
     14       3.5103      0.00000


--------------------------------------------------------------------------------------------------------


 soft charge-density along one line, spin component           1
         0         1         2         3         4         5         6         7         8         9
 total charge-density along one line
 
 pseudopotential strength for first ion, spin component:           1
 -9.986  -0.000  -0.000   0.000  -0.000   0.102   0.000   0.000
 -0.000  -9.987   0.000  -0.000   0.000   0.000   0.102  -0.000
 -0.000   0.000  -9.966  -0.000  -0.000   0.000  -0.000   0.101
  0.000  -0.000  -0.000  -9.987  -0.000  -0.000   0.000   0.000
 -0.000   0.000  -0.000  -0.000  -9.986   0.000  -0.000   0.000
  0.102   0.000   0.000  -0.000   0.000   0.098  -0.000   0.000
  0.000   0.102  -0.000   0.000  -0.000  -0.000   0.098  -0.000
  0.000  -0.000   0.101   0.000   0.000   0.000  -0.000   0.098
 -0.000   0.000   0.000   0.102   0.000   0.000  -0.000  -0.000
  0.000  -0.000   0.000   0.000   0.102  -0.000   0.000  -0.000
  0.000   0.000  -0.005   0.000  -0.000  -0.000  -0.000   0.000
 -0.000  -0.000   0.001  -0.000   0.000   0.000   0.000  -0.000
 -0.000   0.000  -0.000  -0.000  -0.007   0.000  -0.000   0.000
 -0.000   0.000   0.000  -0.000   0.000  -0.000  -0.000  -0.000
 -0.007  -0.000   0.000   0.000  -0.000  -0.000  -0.000  -0.000
  0.000  -0.000   0.000   0.000   0.004  -0.000   0.000  -0.000
  0.000  -0.000  -0.000   0.000  -0.000  -0.000   0.000   0.000
  0.004   0.000  -0.000  -0.000   0.000   0.000  -0.000   0.000
 total augmentation occupancy for first ion, spin component:           1
  0.965   0.000  -0.000   0.000  -0.000   0.595   0.000  -0.000  -0.000  -0.000  -0.000   0.000   0.000  -0.000  -0.065  -0.000
  0.000   0.907   0.000   0.000   0.000  -0.000   0.833   0.000   0.000   0.000   0.000   0.000   0.000   0.000   0.000   0.000
 -0.000   0.000   1.029   0.000   0.000  -0.000  -0.000   0.495   0.000   0.000   0.111  -0.019  -0.000   0.000   0.000   0.000
  0.000   0.000  -0.000   0.907   0.000   0.000   0.000  -0.000   0.833   0.000   0.000  -0.000  -0.000   0.000  -0.000  -0.000
 -0.000  -0.000   0.000   0.000   0.965  -0.000   0.000   0.000  -0.000   0.595   0.000  -0.000  -0.065   0.000  -0.000   0.007
  0.595   0.000  -0.000   0.000  -0.000   0.670  -0.000  -0.000   0.000   0.000   0.000   0.000   0.000   0.000  -0.136  -0.000
  0.000   0.833   0.000   0.000   0.000   0.000   1.069   0.000   0.000   0.000   0.000   0.000   0.000   0.000   0.000   0.000
 -0.000   0.000   0.495   0.000   0.000  -0.000   0.000   0.470   0.000   0.000   0.058  -0.021  -0.000  -0.000   0.000   0.000
 -0.000   0.000  -0.000   0.833  -0.000   0.000   0.000   0.000   1.069   0.000   0.000  -0.000  -0.000  -0.000  -0.000  -0.000
 -0.000   0.000   0.000  -0.000   0.595  -0.000   0.000   0.000   0.000   0.670   0.000  -0.000  -0.136   0.000  -0.000   0.023
 -0.000   0.000   0.111   0.000   0.000   0.000   0.000   0.058   0.000   0.000   1.207  -0.186  -0.000  -0.000   0.000   0.000
  0.000   0.000  -0.019   0.000  -0.000   0.000   0.000  -0.021   0.000  -0.000  -0.186   0.042   0.000   0.000   0.000   0.000
  0.000   0.000  -0.000   0.000  -0.065   0.000   0.000  -0.000   0.000  -0.136   0.000   0.000   0.217   0.000   0.000  -0.032
  0.000   0.000   0.000   0.000   0.000   0.000  -0.000  -0.000  -0.000   0.000   0.000   0.000   0.000   0.264  -0.000   0.000
 -0.065   0.000   0.000  -0.000  -0.000  -0.136   0.000   0.000  -0.000  -0.000   0.000   0.000   0.000  -0.000   0.217  -0.000
 -0.000   0.000   0.000  -0.000   0.007  -0.000  -0.000   0.000   0.000   0.023   0.000   0.000  -0.032   0.000  -0.000   0.005
  0.000  -0.000  -0.000   0.000   0.000   0.000   0.000   0.000  -0.000   0.000  -0.000   0.000   0.000  -0.038   0.000   0.000
  0.007   0.000  -0.000   0.000   0.000   0.023   0.000  -0.000  -0.000   0.000  -0.000   0.000  -0.000   0.000  -0.032   0.000


------------------------ aborting loop because EDIFF is reached ----------------------------------------


    CHARGE:  cpu time    0.1220: real time    0.1222
    FORLOC:  cpu time    0.0160: real time    0.0157
    FORNL :  cpu time    0.1400: real time    0.1401
    STRESS:  cpu time    0.8149: real time    0.8151
    FORCOR:  cpu time    0.3399: real time    0.3396
    FORHAR:  cpu time    0.0860: real time    0.0858
    MIXING:  cpu time    0.0150: real time    0.0152
    OFIELD:  cpu time    0.0000: real time    0.0000

  DFT-D2 method for vdW energy calculation
  -------------------------------------------------------------------

  Parameters of vdW forcefield:
         C6(Jnm^6/mol)     R0(A)
   -----------------------------
   Mo      24.670          1.639
   S        5.570          1.683

  IVDW =   1
  VDW_RADIUS =    50.000 A
  VDW_S6 =     0.750
  VDW_SR =     1.000
  VDW_D =    20.000
  LVDW_EWALD = F

  Number of pair interactions contributing to vdW energy:   12957
  Edisp (eV):   -0.59091
    FORVDW:  cpu time    0.0110: real time    0.0192

  FORCE on cell =-STRESS in cart. coord.  units (eV):
  Direction    XX          YY          ZZ          XY          YZ          ZX
  --------------------------------------------------------------------------------------
  Alpha Z    12.51391    12.51391    12.51391
  Ewald    4853.12264  4853.12308 -5419.98957     0.00019     0.00000     0.00012
  Hartree  4942.42641  4942.42642 -4904.14973     0.00002     0.00000    -0.00000
  E(xc)     -70.30222   -70.30222   -70.90720    -0.00000     0.00000    -0.00000
  Local  -10076.21381-10076.21408 10037.50983    -0.00015     0.00000    -0.00006
  n-local   127.16431   125.78770   131.68325    -0.25751    -0.00000    -0.00001
  augment   -25.56307   -25.56307   -26.66585     0.00000     0.00000    -0.00000
  Kinetic   235.85771   238.65870   239.77616    -7.40907     0.00001     0.00002
  Fock        0.00000     0.00000     0.00000     0.00000     0.00000     0.00000
  vdW         0.16041     0.16041    -0.13425     0.00000     0.00000    -0.00000
  -------------------------------------------------------------------------------------
  Total      -0.12143    -0.12143    -0.36345    -0.00000     0.00000    -0.00000
  in kB      -0.82113    -0.82113    -2.45778    -0.00000     0.00000    -0.00000
  external pressure =       -1.37 kB  Pullay stress =        0.00 kB


 VOLUME and BASIS-vectors are now :
 -----------------------------------------------------------------------------
  energy-cutoff  :     1000.00
  volume of cell :      236.93
      direct lattice vectors                 reciprocal lattice vectors
     3.190315730  0.000000000  0.000000000     0.313448600  0.180969634  0.000000000
    -1.595157865  2.762894468  0.000000000     0.000000000  0.361939267  0.000000000
     0.000000000  0.000000000 26.879004300     0.000000000  0.000000000  0.037203759

  length of vectors
     3.190315730  3.190315730 26.879004300     0.361939267  0.361939267  0.037203759


 FORCES acting on ions
    electron-ion (+dipol)            ewald-force                    non-local-force                 convergence-correction
 -----------------------------------------------------------------------------------------------
   -.118E-04 -.435E-06 0.214E-05   0.931E-04 -.108E-03 0.307E-06   0.208E-16 0.000E+00 0.000E+00   0.926E-09 -.174E-08 -.325E-07
   -.854E-03 0.495E-03 0.579E+03   -.864E-04 0.538E-04 -.584E+03   0.165E-16 -.347E-17 0.480E+01   -.138E-07 0.720E-08 0.237E-02
   0.865E-03 0.495E-03 -.579E+03   -.674E-05 0.538E-04 0.584E+03   0.278E-16 0.347E-17 -.480E+01   0.124E-07 0.720E-08 -.237E-02
 -----------------------------------------------------------------------------------------------
   -.100E-05 0.989E-03 0.393E-04   0.897E-14 0.972E-14 -.114E-12   0.651E-16 0.000E+00 0.888E-15   -.554E-09 0.127E-07 -.905E-07
 
 
 POSITION                                       TOTAL-FORCE (eV/Angst)
 -----------------------------------------------------------------------------------
     -0.00000      1.84193      3.71975        -0.000000     -0.000000      0.000000
      1.59516      0.92096      2.15487        -0.000000      0.000000      0.114935
      1.59516      0.92096      5.28464         0.000000     -0.000000     -0.114935
 -----------------------------------------------------------------------------------
    total drift:                               -0.000001      0.000989      0.000039


--------------------------------------------------------------------------------------------------------



  FREE ENERGIE OF THE ION-ELECTRON SYSTEM (eV)
  ---------------------------------------------------
  free  energy   TOTEN  =       -22.38989810 eV

  energy  without entropy=      -22.38989810  energy(sigma->0) =      -22.38989810
 


--------------------------------------------------------------------------------------------------------


    POTLOK:  cpu time    0.3359: real time    0.3357


--------------------------------------------------------------------------------------------------------


     LOOP+:  cpu time   45.6991: real time   45.9244
    4ORBIT:  cpu time    0.0000: real time    0.0000
 BZINTS: Fermi energy: -3.422605; 18.000000 electrons
         Band energy:-151.643373;  BLOECHL correction:  0.000000

 total amount of memory used by VASP MPI-rank0    99990. kBytes
=======================================================================

   base      :      30000. kBytes
   nonl-proj :      24981. kBytes
   fftplans  :      13593. kBytes
   grid      :      21801. kBytes
   one-center:         31. kBytes
   wavefun   :       9584. kBytes
 
  
  
 General timing and accounting informations for this job:
 ========================================================
  
                  Total CPU time used (sec):       48.254
                            User time (sec):       46.202
                          System time (sec):        2.052
                         Elapsed time (sec):       49.112
  
                   Maximum memory used (kb):      109136.
                   Average memory used (kb):           0.
  
                          Minor page faults:        28525
                          Major page faults:          206
                 Voluntary context switches:         3244
